<?xml version="1.0" encoding="ISO-8859-1"?>
<modeling>
 <generator>
  <i name="program" type="string">vasp </i>
  <i name="version" type="string">5.4.4.18Apr17-6-g9f103f2a35  </i>
  <i name="subversion" type="string">(build Jun 07 2020 16:50:00) complex            parallel </i>
  <i name="platform" type="string">LinuxIFC </i>
  <i name="date" type="string">2023 02 23 </i>
  <i name="time" type="string">16:55:48 </i>
 </generator>
 <incar>
  <i type="string" name="SYSTEM">Simulation for cell shape cell volume r</i>
  <i type="int" name="ISTART">     1</i>
  <i type="string" name="PREC">high</i>
  <i type="string" name="ALGO">48</i>
  <i type="int" name="ICHARG">    11</i>
  <i type="int" name="NELM">   200</i>
  <i type="int" name="IBRION">    -1</i>
  <i name="EDIFF">      0.00001000</i>
  <i name="EDIFFG">     -0.01000000</i>
  <i type="int" name="NSW">     0</i>
  <i type="int" name="ISIF">     2</i>
  <i name="ENCUT">    500.00000000</i>
  <i name="POTIM">      0.30000000</i>
  <i type="string" name="LREAL">A</i>
  <i type="int" name="ISMEAR">     0</i>
  <i name="SIGMA">      0.01000000</i>
  <i type="int" name="NWRITE">     0</i>
  <i type="logical" name="LWAVE"> F  </i>
  <i type="logical" name="LCHARG"> F  </i>
  <v type="int" name="KPOINT_BSE">    -1     0     0     0</v>
  <i type="int" name="NELM">   200</i>
  <i type="string" name="GGA">PE</i>
 </incar>
 <structure name="primitive_cell" >
  <crystal>
   <varray name="basis" >
    <v>      29.49298422      -0.00000001       0.00000000 </v>
    <v>     -14.74649210      25.54167357       0.00000000 </v>
    <v>       0.00000000       0.00000000      20.00000000 </v>
   </varray>
   <i name="volume">  15066.00350986 </i>
   <varray name="rec_basis" >
    <v>       0.03390637       0.01957585       0.00000000 </v>
    <v>       0.00000000       0.03915170       0.00000000 </v>
    <v>       0.00000000       0.00000000       0.05000000 </v>
   </varray>
  </crystal>
  <varray name="positions" >
   <v>       0.38715889      -0.30677329      -0.49805083 </v>
   <v>       0.35939903      -0.28187712      -0.49807147 </v>
   <v>       0.35872385      -0.35939903      -0.49807147 </v>
   <v>       0.30606782      -0.38715889      -0.49805083 </v>
   <v>       0.30677329      -0.30606782      -0.49805083 </v>
   <v>       0.38730636      -0.38868571      -0.49856511 </v>
   <v>       0.38868571      -0.22400792      -0.49856511 </v>
   <v>       0.46304910      -0.21858186       0.48210814 </v>
   <v>       0.46231215      -0.32064867      -0.47875139 </v>
   <v>       0.28187712      -0.35872385      -0.49807147 </v>
   <v>       0.44293784      -0.19647621       0.48981373 </v>
   <v>       0.44163905      -0.36273732      -0.48772357 </v>
   <v>       0.36058594      -0.44293784       0.48981373 </v>
   <v>       0.36273732      -0.19562363      -0.48772357 </v>
   <v>       0.31836904      -0.46304910       0.48210814 </v>
   <v>       0.32064867      -0.21703918      -0.47875139 </v>
   <v>       0.22400792      -0.38730636      -0.49856511 </v>
   <v>       0.46839281      -0.39044613      -0.48844441 </v>
   <v>       0.47029442      -0.14204712       0.48807729 </v>
   <v>       0.21858186      -0.31836904       0.48210814 </v>
   <v>       0.21703918      -0.46231215      -0.47875139 </v>
   <v>       0.38765846      -0.47029442       0.48807729 </v>
   <v>       0.39044613      -0.14116106      -0.48844441 </v>
   <v>      -0.48756022      -0.12124430       0.47935293 </v>
   <v>      -0.48938652      -0.36992774      -0.48005918 </v>
   <v>       0.19647621      -0.36058594       0.48981373 </v>
   <v>       0.19562363      -0.44163905      -0.48772357 </v>
   <v>       0.44205404      -0.44464122       0.49888316 </v>
   <v>       0.44464122      -0.11330474       0.49888316 </v>
   <v>       0.36631593       0.48756022       0.47935293 </v>
   <v>       0.36992774      -0.11945878      -0.48005918 </v>
   <v>       0.47614414      -0.08602027       0.36918234 </v>
   <v>       0.14204712      -0.38765846       0.48807729 </v>
   <v>       0.14116106      -0.46839281      -0.48844441 </v>
   <v>       0.43783559      -0.47614414       0.36918234 </v>
   <v>       0.47120149      -0.47354307       0.49891809 </v>
   <v>       0.47354307      -0.05525544       0.49891809 </v>
   <v>      -0.49713955      -0.44429006      -0.40358590 </v>
   <v>      -0.45656558      -0.05941900       0.38684946 </v>
   <v>      -0.48787885      -0.04962170       0.38207386 </v>
   <v>       0.11330474      -0.44205404       0.49888316 </v>
   <v>       0.44429006      -0.05284949      -0.40358590 </v>
   <v>       0.12124430      -0.36631593       0.47935293 </v>
   <v>       0.11945878       0.48938652      -0.48005918 </v>
   <v>      -0.49758517      -0.46838263      -0.44538046 </v>
   <v>      -0.49424823      -0.02531141       0.44517484 </v>
   <v>       0.43825714       0.48787885       0.38207386 </v>
   <v>       0.46838263      -0.02920254      -0.44538046 </v>
   <v>       0.46893682       0.49424823       0.44517484 </v>
   <v>       0.39714658       0.45656558       0.38684946 </v>
   <v>      -0.47746309      -0.02231085       0.33994069 </v>
   <v>       0.08602027      -0.43783559       0.36918234 </v>
   <v>       0.45515224       0.47746309       0.33994069 </v>
   <v>       0.05525544      -0.47120149       0.49891809 </v>
   <v>      -0.46854167      -0.49385846      -0.43984003 </v>
   <v>      -0.46878420       0.02921205       0.45070822 </v>
   <v>       0.49385846       0.02531679      -0.43984003 </v>
   <v>       0.49799625       0.46878420       0.45070822 </v>
   <v>       0.05284949       0.49713955      -0.40358590 </v>
   <v>       0.05941900      -0.39714658       0.38684946 </v>
   <v>      -0.45485606      -0.47720525      -0.33457378 </v>
   <v>       0.04962170      -0.43825714       0.38207386 </v>
   <v>       0.02920254       0.49758517      -0.44538046 </v>
   <v>       0.47720525       0.02234919      -0.33457378 </v>
   <v>      -0.47081300       0.47392777      -0.49357325 </v>
   <v>       0.02531141      -0.46893682       0.44517484 </v>
   <v>      -0.47392777       0.05525923      -0.49357325 </v>
   <v>      -0.44470429       0.05286001       0.40890263 </v>
   <v>      -0.43790565      -0.48753975      -0.37671989 </v>
   <v>       0.49756430       0.44470429       0.40890263 </v>
   <v>      -0.39680287      -0.45618814      -0.38141787 </v>
   <v>       0.48753975       0.04963410      -0.37671989 </v>
   <v>       0.02231085      -0.45515224       0.33994069 </v>
   <v>       0.45618814       0.05938526      -0.38141787 </v>
   <v>      -0.43745511       0.47649106      -0.36389225 </v>
   <v>      -0.47649106       0.08605382      -0.36389225 </v>
   <v>      -0.02531679       0.46854167      -0.43984003 </v>
   <v>      -0.02921205      -0.49799625       0.45070822 </v>
   <v>      -0.44172956       0.44495703      -0.49340606 </v>
   <v>      -0.44495703       0.11331341      -0.49340606 </v>
   <v>      -0.37025192       0.11935074       0.48587930 </v>
   <v>      -0.36591916      -0.48726740      -0.47412057 </v>
   <v>      -0.02234919       0.45485606      -0.33457378 </v>
   <v>      -0.05525923       0.47081300      -0.49357325 </v>
   <v>       0.48960266       0.37025192       0.48587930 </v>
   <v>      -0.05286001      -0.49756430       0.40890263 </v>
   <v>      -0.39072191       0.14110841       0.49419640 </v>
   <v>       0.48726740       0.12134824      -0.47412057 </v>
   <v>      -0.38732721       0.47055740      -0.48263138 </v>
   <v>      -0.04963410       0.43790565      -0.37671989 </v>
   <v>      -0.46816967       0.39072191       0.49419640 </v>
   <v>      -0.47055740       0.14211539      -0.48263138 </v>
   <v>      -0.05938526       0.39680287      -0.38141787 </v>
   <v>      -0.08605382       0.43745511      -0.36389225 </v>
   <v>      -0.11331341       0.44172956      -0.49340606 </v>
   <v>      -0.36292916       0.19556568       0.49362596 </v>
   <v>      -0.36034606       0.44310366      -0.48419550 </v>
   <v>      -0.44150515       0.36292916       0.49362596 </v>
   <v>      -0.44310366       0.19655029      -0.48419550 </v>
   <v>      -0.11935074      -0.48960266       0.48587930 </v>
   <v>      -0.12134824       0.36591916      -0.47412057 </v>
   <v>      -0.32081546       0.21694450       0.48488568 </v>
   <v>      -0.31812518       0.46319077      -0.47649671 </v>
   <v>      -0.14110841       0.46816967       0.49419640 </v>
   <v>      -0.14211539       0.38732721      -0.48263138 </v>
   <v>      -0.38717315       0.38881946      -0.49562108 </v>
   <v>      -0.38881946       0.22400739      -0.49562108 </v>
   <v>      -0.46224004       0.32081546       0.48488568 </v>
   <v>      -0.46319077       0.21868404      -0.47649671 </v>
   <v>      -0.19556568       0.44150515       0.49362596 </v>
   <v>      -0.19655029       0.36034606      -0.48419550 </v>
   <v>      -0.35867778       0.35944723      -0.49609503 </v>
   <v>      -0.35944723       0.28187499      -0.49609503 </v>
   <v>      -0.21694450       0.46224004       0.48488568 </v>
   <v>      -0.22400739       0.38717315      -0.49562108 </v>
   <v>      -0.21868404       0.31812518      -0.47649671 </v>
   <v>      -0.30682504       0.30601174      -0.49611356 </v>
   <v>      -0.30601174       0.38716321      -0.49611356 </v>
   <v>      -0.38716321       0.30682504      -0.49611356 </v>
   <v>      -0.28187499       0.35867778      -0.49609503 </v>
  </varray>
 </structure>
 <varray name="primitive_index" >
  <v type="int" >        1 </v>
  <v type="int" >        9 </v>
  <v type="int" >       10 </v>
  <v type="int" >        2 </v>
  <v type="int" >        3 </v>
  <v type="int" >       12 </v>
  <v type="int" >       18 </v>
  <v type="int" >       76 </v>
  <v type="int" >       86 </v>
  <v type="int" >       11 </v>
  <v type="int" >       19 </v>
  <v type="int" >       13 </v>
  <v type="int" >       17 </v>
  <v type="int" >       23 </v>
  <v type="int" >       83 </v>
  <v type="int" >       78 </v>
  <v type="int" >       24 </v>
  <v type="int" >       14 </v>
  <v type="int" >       20 </v>
  <v type="int" >       79 </v>
  <v type="int" >       81 </v>
  <v type="int" >       16 </v>
  <v type="int" >       22 </v>
  <v type="int" >       75 </v>
  <v type="int" >       85 </v>
  <v type="int" >       25 </v>
  <v type="int" >       29 </v>
  <v type="int" >       15 </v>
  <v type="int" >       21 </v>
  <v type="int" >       84 </v>
  <v type="int" >       77 </v>
  <v type="int" >      116 </v>
  <v type="int" >       26 </v>
  <v type="int" >       28 </v>
  <v type="int" >      112 </v>
  <v type="int" >       62 </v>
  <v type="int" >       66 </v>
  <v type="int" >       99 </v>
  <v type="int" >      117 </v>
  <v type="int" >       69 </v>
  <v type="int" >       27 </v>
  <v type="int" >      103 </v>
  <v type="int" >       80 </v>
  <v type="int" >       82 </v>
  <v type="int" >       53 </v>
  <v type="int" >       67 </v>
  <v type="int" >       65 </v>
  <v type="int" >       57 </v>
  <v type="int" >       63 </v>
  <v type="int" >      113 </v>
  <v type="int" >      118 </v>
  <v type="int" >      120 </v>
  <v type="int" >      114 </v>
  <v type="int" >       70 </v>
  <v type="int" >       52 </v>
  <v type="int" >       68 </v>
  <v type="int" >       56 </v>
  <v type="int" >       64 </v>
  <v type="int" >      107 </v>
  <v type="int" >       74 </v>
  <v type="int" >      101 </v>
  <v type="int" >       72 </v>
  <v type="int" >        7 </v>
  <v type="int" >      105 </v>
  <v type="int" >       51 </v>
  <v type="int" >        8 </v>
  <v type="int" >       55 </v>
  <v type="int" >      115 </v>
  <v type="int" >       54 </v>
  <v type="int" >      111 </v>
  <v type="int" >      102 </v>
  <v type="int" >       58 </v>
  <v type="int" >       73 </v>
  <v type="int" >      106 </v>
  <v type="int" >      100 </v>
  <v type="int" >      104 </v>
  <v type="int" >       60 </v>
  <v type="int" >       71 </v>
  <v type="int" >       36 </v>
  <v type="int" >       42 </v>
  <v type="int" >       89 </v>
  <v type="int" >       96 </v>
  <v type="int" >      109 </v>
  <v type="int" >       59 </v>
  <v type="int" >       97 </v>
  <v type="int" >      119 </v>
  <v type="int" >       43 </v>
  <v type="int" >       87 </v>
  <v type="int" >       37 </v>
  <v type="int" >       61 </v>
  <v type="int" >       35 </v>
  <v type="int" >       41 </v>
  <v type="int" >      110 </v>
  <v type="int" >      108 </v>
  <v type="int" >       48 </v>
  <v type="int" >       44 </v>
  <v type="int" >       38 </v>
  <v type="int" >       34 </v>
  <v type="int" >       40 </v>
  <v type="int" >       94 </v>
  <v type="int" >       92 </v>
  <v type="int" >       90 </v>
  <v type="int" >       95 </v>
  <v type="int" >       49 </v>
  <v type="int" >       47 </v>
  <v type="int" >       33 </v>
  <v type="int" >       39 </v>
  <v type="int" >       98 </v>
  <v type="int" >       88 </v>
  <v type="int" >       50 </v>
  <v type="int" >       46 </v>
  <v type="int" >       31 </v>
  <v type="int" >       30 </v>
  <v type="int" >       93 </v>
  <v type="int" >       45 </v>
  <v type="int" >       91 </v>
  <v type="int" >        6 </v>
  <v type="int" >        5 </v>
  <v type="int" >        4 </v>
  <v type="int" >       32 </v>
 </varray>
 <kpoints>
  <generation param="listgenerated">
   <i name="divisions" type="int">      20 </i>
   <v>       0.00000000       0.00000000       0.00000000 </v>
   <v>       0.50000000       0.00000000       0.00000000 </v>
   <v>       0.33333333       0.33333333       0.00000000 </v>
   <v>       0.00000000       0.00000000       0.00000000 </v>
  </generation>
  <varray name="kpointlist" >
   <v>       0.00000000       0.00000000       0.00000000 </v>
   <v>       0.02631579       0.00000000       0.00000000 </v>
   <v>       0.05263158       0.00000000       0.00000000 </v>
   <v>       0.07894737       0.00000000       0.00000000 </v>
   <v>       0.10526316       0.00000000       0.00000000 </v>
   <v>       0.13157895       0.00000000       0.00000000 </v>
   <v>       0.15789474       0.00000000       0.00000000 </v>
   <v>       0.18421053       0.00000000       0.00000000 </v>
   <v>       0.21052632       0.00000000       0.00000000 </v>
   <v>       0.23684211       0.00000000       0.00000000 </v>
   <v>       0.26315789       0.00000000       0.00000000 </v>
   <v>       0.28947368       0.00000000       0.00000000 </v>
   <v>       0.31578947       0.00000000       0.00000000 </v>
   <v>       0.34210526       0.00000000       0.00000000 </v>
   <v>       0.36842105       0.00000000       0.00000000 </v>
   <v>       0.39473684       0.00000000       0.00000000 </v>
   <v>       0.42105263       0.00000000       0.00000000 </v>
   <v>       0.44736842       0.00000000       0.00000000 </v>
   <v>       0.47368421       0.00000000       0.00000000 </v>
   <v>       0.50000000       0.00000000       0.00000000 </v>
   <v>       0.50000000       0.00000000       0.00000000 </v>
   <v>       0.49122807       0.01754386       0.00000000 </v>
   <v>       0.48245614       0.03508772       0.00000000 </v>
   <v>       0.47368421       0.05263158       0.00000000 </v>
   <v>       0.46491228       0.07017544       0.00000000 </v>
   <v>       0.45614035       0.08771930       0.00000000 </v>
   <v>       0.44736842       0.10526316       0.00000000 </v>
   <v>       0.43859649       0.12280702       0.00000000 </v>
   <v>       0.42982456       0.14035088       0.00000000 </v>
   <v>       0.42105263       0.15789474       0.00000000 </v>
   <v>       0.41228070       0.17543860       0.00000000 </v>
   <v>       0.40350877       0.19298246       0.00000000 </v>
   <v>       0.39473684       0.21052632       0.00000000 </v>
   <v>       0.38596491       0.22807018       0.00000000 </v>
   <v>       0.37719298       0.24561404       0.00000000 </v>
   <v>       0.36842105       0.26315789       0.00000000 </v>
   <v>       0.35964912       0.28070175       0.00000000 </v>
   <v>       0.35087719       0.29824561       0.00000000 </v>
   <v>       0.34210526       0.31578947       0.00000000 </v>
   <v>       0.33333333       0.33333333       0.00000000 </v>
   <v>       0.33333333       0.33333333       0.00000000 </v>
   <v>       0.31578947       0.31578947       0.00000000 </v>
   <v>       0.29824561       0.29824561       0.00000000 </v>
   <v>       0.28070175       0.28070175       0.00000000 </v>
   <v>       0.26315789       0.26315789       0.00000000 </v>
   <v>       0.24561404       0.24561404       0.00000000 </v>
   <v>       0.22807018       0.22807018       0.00000000 </v>
   <v>       0.21052632       0.21052632       0.00000000 </v>
   <v>       0.19298246       0.19298246       0.00000000 </v>
   <v>       0.17543860       0.17543860       0.00000000 </v>
   <v>       0.15789474       0.15789474       0.00000000 </v>
   <v>       0.14035088       0.14035088       0.00000000 </v>
   <v>       0.12280702       0.12280702       0.00000000 </v>
   <v>       0.10526316       0.10526316       0.00000000 </v>
   <v>       0.08771930       0.08771930       0.00000000 </v>
   <v>       0.07017544       0.07017544       0.00000000 </v>
   <v>       0.05263158       0.05263158       0.00000000 </v>
   <v>       0.03508772       0.03508772       0.00000000 </v>
   <v>       0.01754386       0.01754386       0.00000000 </v>
   <v>       0.00000000       0.00000000       0.00000000 </v>
  </varray>
  <varray name="weights" >
   <v>       0.01666667 </v>
   <v>       0.01666667 </v>
   <v>       0.01666667 </v>
   <v>       0.01666667 </v>
   <v>       0.01666667 </v>
   <v>       0.01666667 </v>
   <v>       0.01666667 </v>
   <v>       0.01666667 </v>
   <v>       0.01666667 </v>
   <v>       0.01666667 </v>
   <v>       0.01666667 </v>
   <v>       0.01666667 </v>
   <v>       0.01666667 </v>
   <v>       0.01666667 </v>
   <v>       0.01666667 </v>
   <v>       0.01666667 </v>
   <v>       0.01666667 </v>
   <v>       0.01666667 </v>
   <v>       0.01666667 </v>
   <v>       0.01666667 </v>
   <v>       0.01666667 </v>
   <v>       0.01666667 </v>
   <v>       0.01666667 </v>
   <v>       0.01666667 </v>
   <v>       0.01666667 </v>
   <v>       0.01666667 </v>
   <v>       0.01666667 </v>
   <v>       0.01666667 </v>
   <v>       0.01666667 </v>
   <v>       0.01666667 </v>
   <v>       0.01666667 </v>
   <v>       0.01666667 </v>
   <v>       0.01666667 </v>
   <v>       0.01666667 </v>
   <v>       0.01666667 </v>
   <v>       0.01666667 </v>
   <v>       0.01666667 </v>
   <v>       0.01666667 </v>
   <v>       0.01666667 </v>
   <v>       0.01666667 </v>
   <v>       0.01666667 </v>
   <v>       0.01666667 </v>
   <v>       0.01666667 </v>
   <v>       0.01666667 </v>
   <v>       0.01666667 </v>
   <v>       0.01666667 </v>
   <v>       0.01666667 </v>
   <v>       0.01666667 </v>
   <v>       0.01666667 </v>
   <v>       0.01666667 </v>
   <v>       0.01666667 </v>
   <v>       0.01666667 </v>
   <v>       0.01666667 </v>
   <v>       0.01666667 </v>
   <v>       0.01666667 </v>
   <v>       0.01666667 </v>
   <v>       0.01666667 </v>
   <v>       0.01666667 </v>
   <v>       0.01666667 </v>
   <v>       0.01666667 </v>
  </varray>
 </kpoints>
 <parameters>
  <separator name="general" >
   <i type="string" name="SYSTEM">Simulation for cell shape cell volume r</i>
   <i type="logical" name="LCOMPAT"> F  </i>
  </separator>
  <separator name="electronic" >
   <i type="string" name="PREC">high</i>
   <i name="ENMAX">    500.00000000</i>
   <i name="ENAUG">    644.87300000</i>
   <i name="EDIFF">      0.00001000</i>
   <i type="int" name="IALGO">    38</i>
   <i type="int" name="IWAVPR">    10</i>
   <i type="int" name="NBANDS">   240</i>
   <i name="NELECT">    342.00000000</i>
   <i type="int" name="TURBO">     0</i>
   <i type="int" name="IRESTART">     0</i>
   <i type="int" name="NREBOOT">     0</i>
   <i type="int" name="NMIN">     0</i>
   <i name="EREF">      0.00000000</i>
   <separator name="electronic smearing" >
    <i type="int" name="ISMEAR">     0</i>
    <i name="SIGMA">      0.01000000</i>
    <i name="KSPACING">      0.50000000</i>
    <i type="logical" name="KGAMMA"> T  </i>
   </separator>
   <separator name="electronic projectors" >
    <i type="logical" name="LREAL"> T  </i>
    <v name="ROPT">     -0.00040000     -0.00040000     -0.00040000</v>
    <i type="int" name="LMAXPAW">  -100</i>
    <i type="int" name="LMAXMIX">     2</i>
    <i type="logical" name="NLSPLINE"> F  </i>
   </separator>
   <separator name="electronic startup" >
    <i type="int" name="ISTART">     1</i>
    <i type="int" name="ICHARG">    11</i>
    <i type="int" name="INIWAV">     1</i>
   </separator>
   <separator name="electronic spin" >
    <i type="int" name="ISPIN">     1</i>
    <i type="logical" name="LNONCOLLINEAR"> F  </i>
    <v name="MAGMOM">      1.00000000      1.00000000      1.00000000      1.00000000      1.00000000      1.00000000      1.00000000      1.00000000      1.00000000      1.00000000      1.00000000      1.00000000      1.00000000      1.00000000      1.00000000      1.00000000      1.00000000      1.00000000      1.00000000      1.00000000
      1.00000000      1.00000000      1.00000000      1.00000000      1.00000000      1.00000000      1.00000000      1.00000000      1.00000000      1.00000000      1.00000000      1.00000000      1.00000000      1.00000000      1.00000000      1.00000000      1.00000000      1.00000000      1.00000000      1.00000000
      1.00000000      1.00000000      1.00000000      1.00000000      1.00000000      1.00000000      1.00000000      1.00000000      1.00000000      1.00000000      1.00000000      1.00000000      1.00000000      1.00000000      1.00000000      1.00000000      1.00000000      1.00000000      1.00000000      1.00000000
      1.00000000      1.00000000      1.00000000      1.00000000      1.00000000      1.00000000      1.00000000      1.00000000      1.00000000      1.00000000      1.00000000      1.00000000      1.00000000      1.00000000      1.00000000      1.00000000      1.00000000      1.00000000      1.00000000      1.00000000
      1.00000000      1.00000000      1.00000000      1.00000000      1.00000000      1.00000000      1.00000000      1.00000000      1.00000000      1.00000000      1.00000000      1.00000000      1.00000000      1.00000000      1.00000000      1.00000000      1.00000000      1.00000000      1.00000000      1.00000000
      1.00000000      1.00000000      1.00000000      1.00000000      1.00000000      1.00000000      1.00000000      1.00000000      1.00000000      1.00000000      1.00000000      1.00000000      1.00000000      1.00000000      1.00000000      1.00000000      1.00000000      1.00000000      1.00000000      1.00000000
</v>
    <i name="NUPDOWN">     -1.00000000</i>
    <i type="logical" name="LSORBIT"> F  </i>
    <v name="SAXIS">      0.00000000      0.00000000      1.00000000</v>
    <i type="logical" name="LSPIRAL"> F  </i>
    <v name="QSPIRAL">      0.00000000      0.00000000      0.00000000</v>
    <i type="logical" name="LZEROZ"> F  </i>
   </separator>
   <separator name="electronic exchange-correlation" >
    <i type="logical" name="LASPH"> F  </i>
    <i type="logical" name="LMETAGGA"> F  </i>
   </separator>
   <separator name="electronic convergence" >
    <i type="int" name="NELM">   200</i>
    <i type="int" name="NELMDL">     0</i>
    <i type="int" name="NELMIN">     2</i>
    <i name="ENINI">    500.00000000</i>
    <separator name="electronic convergence detail" >
     <i type="logical" name="LDIAG"> T  </i>
     <i type="logical" name="LSUBROT"> F  </i>
     <i name="WEIMIN">      0.00000000</i>
     <i name="EBREAK">      0.00000001</i>
     <i name="DEPER">      0.30000000</i>
     <i type="int" name="NRMM">     4</i>
     <i name="TIME">      0.40000000</i>
    </separator>
   </separator>
   <separator name="electronic mixer" >
    <i name="AMIX">      0.40000000</i>
    <i name="BMIX">      1.00000000</i>
    <i name="AMIN">      0.10000000</i>
    <i name="AMIX_MAG">      1.60000000</i>
    <i name="BMIX_MAG">      1.00000000</i>
    <separator name="electronic mixer details" >
     <i type="int" name="IMIX">     4</i>
     <i type="logical" name="MIXFIRST"> F  </i>
     <i type="int" name="MAXMIX">   -45</i>
     <i name="WC">    100.00000000</i>
     <i type="int" name="INIMIX">     1</i>
     <i type="int" name="MIXPRE">     1</i>
     <i type="int" name="MREMOVE">     5</i>
    </separator>
   </separator>
   <separator name="electronic dipolcorrection" >
    <i type="logical" name="LDIPOL"> F  </i>
    <i type="logical" name="LMONO"> F  </i>
    <i type="int" name="IDIPOL">     0</i>
    <i name="EPSILON">      1.00000000</i>
    <v name="DIPOL">   -100.00000000   -100.00000000   -100.00000000</v>
    <i name="EFIELD">      0.00000000</i>
   </separator>
  </separator>
  <separator name="grids" >
   <i type="int" name="NGX">   216</i>
   <i type="int" name="NGY">   216</i>
   <i type="int" name="NGZ">   150</i>
   <i type="int" name="NGXF">   336</i>
   <i type="int" name="NGYF">   336</i>
   <i type="int" name="NGZF">   224</i>
   <i type="logical" name="ADDGRID"> F  </i>
  </separator>
  <separator name="ionic" >
   <i type="int" name="NSW">     0</i>
   <i type="int" name="IBRION">    -1</i>
   <i type="int" name="MDALGO">     0</i>
   <i type="int" name="ISIF">     2</i>
   <i name="PSTRESS">      0.00000000</i>
   <i name="EDIFFG">     -0.01000000</i>
   <i type="int" name="NFREE">     0</i>
   <i name="POTIM">      0.30000000</i>
   <i name="SMASS">     -3.00000000</i>
   <i name="SCALEE">      1.00000000</i>
  </separator>
  <separator name="ionic md" >
   <i name="TEBEG">      0.00010000</i>
   <i name="TEEND">      0.00010000</i>
   <i type="int" name="NBLOCK">     1</i>
   <i type="int" name="KBLOCK">     1</i>
   <i type="int" name="NPACO">   256</i>
   <i name="APACO">     16.00000000</i>
  </separator>
  <separator name="symmetry" >
   <i type="int" name="ISYM">     2</i>
   <i name="SYMPREC">      0.00001000</i>
  </separator>
  <separator name="dos" >
   <i type="int" name="LORBIT">     0</i>
   <v name="RWIGS">     -1.00000000     -1.00000000     -1.00000000</v>
   <i type="int" name="NEDOS">   301</i>
   <i name="EMIN">     10.00000000</i>
   <i name="EMAX">    -10.00000000</i>
   <i name="EFERMI">      0.00000000</i>
  </separator>
  <separator name="writing" >
   <i type="int" name="NWRITE">     0</i>
   <i type="logical" name="LWAVE"> F  </i>
   <i type="logical" name="LDOWNSAMPLE"> F  </i>
   <i type="logical" name="LCHARG"> F  </i>
   <i type="logical" name="LPARD"> F  </i>
   <i type="logical" name="LVTOT"> F  </i>
   <i type="logical" name="LVHAR"> F  </i>
   <i type="logical" name="LELF"> F  </i>
   <i type="logical" name="LOPTICS"> F  </i>
   <v name="STM">      0.00000000      0.00000000      0.00000000      0.00000000      0.00000000      0.00000000      0.00000000</v>
  </separator>
  <separator name="performance" >
   <i type="int" name="NPAR">    16</i>
   <i type="int" name="NSIM">     4</i>
   <i type="int" name="NBLK">    -1</i>
   <i type="logical" name="LPLANE"> T  </i>
   <i type="logical" name="LSCALAPACK"> T  </i>
   <i type="logical" name="LSCAAWARE"> F  </i>
   <i type="logical" name="LSCALU"> F  </i>
   <i type="logical" name="LASYNC"> F  </i>
   <i type="logical" name="LORBITALREAL"> F  </i>
  </separator>
  <separator name="miscellaneous" >
   <i type="int" name="IDIOT">     3</i>
   <i type="int" name="ISPECIAL">     0</i>
   <i type="logical" name="LMUSIC"> F  </i>
   <v name="POMASS">     14.00100000     12.01100000      1.00000000</v>
   <v name="DARWINR">      0.00000000      0.00000000      0.00000000</v>
   <v name="DARWINV">      1.00000000      1.00000000      1.00000000</v>
   <i type="logical" name="LCORR"> T  </i>
  </separator>
  <i type="logical" name="GGA_COMPAT"> T  </i>
  <i type="logical" name="LBERRY"> F  </i>
  <i type="int" name="ICORELEVEL">     0</i>
  <i type="logical" name="LDAU"> F  </i>
  <i type="int" name="I_CONSTRAINED_M">     0</i>
  <separator name="electronic exchange-correlation" >
   <i type="string" name="GGA">PE</i>
   <i type="int" name="VOSKOWN">     0</i>
   <i type="logical" name="LHFCALC"> F  </i>
   <i type="string" name="PRECFOCK"></i>
   <i type="logical" name="LSYMGRAD"> F  </i>
   <i type="logical" name="LHFONE"> F  </i>
   <i type="logical" name="LRHFCALC"> F  </i>
   <i type="logical" name="LTHOMAS"> F  </i>
   <i type="logical" name="LMODELHF"> F  </i>
   <i name="ENCUT4O">     -1.00000000</i>
   <i type="int" name="EXXOEP">     0</i>
   <i type="int" name="FOURORBIT">     0</i>
   <i name="AEXX">      0.00000000</i>
   <i name="HFALPHA">      0.00000000</i>
   <i name="MCALPHA">      0.00000000</i>
   <i name="ALDAX">      1.00000000</i>
   <i name="AGGAX">      1.00000000</i>
   <i name="ALDAC">      1.00000000</i>
   <i name="AGGAC">      1.00000000</i>
   <i type="int" name="NKREDX">     1</i>
   <i type="int" name="NKREDY">     1</i>
   <i type="int" name="NKREDZ">     1</i>
   <i type="logical" name="SHIFTRED"> F  </i>
   <i type="logical" name="ODDONLY"> F  </i>
   <i type="logical" name="EVENONLY"> F  </i>
   <i type="int" name="LMAXFOCK">     0</i>
   <i type="int" name="NMAXFOCKAE">     0</i>
   <i type="logical" name="LFOCKAEDFT"> F  </i>
   <i name="HFSCREEN">      0.00000000</i>
   <i name="HFSCREENC">      0.00000000</i>
   <i type="int" name="NBANDSGWLOW">     0</i>
  </separator>
  <separator name="vdW DFT" >
   <i type="logical" name="LUSE_VDW"> F  </i>
   <i name="Zab_VDW">     -0.84910000</i>
   <i name="PARAM1">      0.12340000</i>
   <i name="PARAM2">      1.00000000</i>
   <i name="PARAM3">      0.00000000</i>
  </separator>
  <separator name="model GW" >
   <i type="int" name="MODEL_GW">     0</i>
   <i name="MODEL_EPS0">     75.33001755</i>
   <i name="MODEL_ALPHA">      1.00000000</i>
  </separator>
  <separator name="linear response parameters" >
   <i type="logical" name="LEPSILON"> F  </i>
   <i type="logical" name="LRPA"> F  </i>
   <i type="logical" name="LNABLA"> F  </i>
   <i type="logical" name="LVEL"> F  </i>
   <i type="int" name="KINTER">     0</i>
   <i name="CSHIFT">      0.10000000</i>
   <i name="OMEGAMAX">     -1.00000000</i>
   <i name="DEG_THRESHOLD">      0.00200000</i>
   <i name="RTIME">     -0.10000000</i>
   <i name="WPLASMAI">      0.00000000</i>
   <v name="DFIELD">      0.00000000      0.00000000      0.00000000</v>
   <v name="WPLASMA">      0.00000000      0.00000000      0.00000000      0.00000000      0.00000000      0.00000000      0.00000000      0.00000000      0.00000000</v>
  </separator>
  <separator name="orbital magnetization" >
   <i type="logical" name="NUCIND"> F  </i>
   <v name="MAGPOS">      0.00000000      0.00000000      0.00000000</v>
   <i type="logical" name="LNICSALL"> T  </i>
   <i type="logical" name="ORBITALMAG"> F  </i>
   <i type="logical" name="LMAGBLOCH"> F  </i>
   <i type="logical" name="LCHIMAG"> F  </i>
   <i type="logical" name="LGAUGE"> T  </i>
   <i type="int" name="MAGATOM">     0</i>
   <v name="MAGDIPOL">      0.00000000      0.00000000      0.00000000</v>
   <v name="AVECCONST">      0.00000000      0.00000000      0.00000000</v>
  </separator>
  <separator name="response functions" >
   <i type="logical" name="LADDER"> F  </i>
   <i type="logical" name="LRPAFORCE"> F  </i>
   <i type="logical" name="LFXC"> F  </i>
   <i type="logical" name="LHARTREE"> T  </i>
   <i type="int" name="IBSE">     0</i>
   <v type="int" name="KPOINT">    -1     0     0     0</v>
   <i type="logical" name="LTCTE"> F  </i>
   <i type="logical" name="LTETE"> F  </i>
   <i type="logical" name="LTRIPLET"> F  </i>
   <i type="logical" name="LFXCEPS"> F  </i>
   <i type="logical" name="LFXHEG"> F  </i>
   <i type="int" name="NATURALO">     2</i>
   <i type="logical" name="L2ORDER"> F  </i>
   <i type="logical" name="LMP2LT"> F  </i>
   <i type="logical" name="LUSEW"> F  </i>
   <i name="ENCUTGW">     -2.00000000</i>
   <i name="ENCUTGWSOFT">     -2.00000000</i>
   <i name="ENCUTLF">     -1.00000000</i>
   <i type="int" name="LMAXMP2">    -1</i>
   <i name="SCISSOR">      0.00000000</i>
   <i type="int" name="NOMEGA">     0</i>
   <i type="int" name="NOMEGAR">     0</i>
   <i type="int" name="NBANDSGW">    -1</i>
   <i type="int" name="NBANDSO">    -1</i>
   <i type="int" name="NBANDSV">    -1</i>
   <i type="int" name="NELM">   200</i>
   <i type="int" name="NELMHF">     1</i>
   <i type="int" name="DIM">     3</i>
   <i type="int" name="ANTIRES">     0</i>
   <i name="OMEGAMAX">    -30.00000000</i>
   <i name="OMEGAMIN">    -30.00000000</i>
   <i name="OMEGATL">   -200.00000000</i>
   <i type="int" name="OMEGAGRID">   140</i>
   <i name="CSHIFT">     -0.10000000</i>
   <i type="logical" name="SELFENERGY"> F  </i>
   <i type="logical" name="LSPECTRAL"> F  </i>
   <i type="logical" name="LSPECTRALGW"> F  </i>
   <i type="logical" name="LSINGLES"> F  </i>
   <i type="logical" name="LFERMIGW"> F  </i>
   <i type="logical" name="ODDONLYGW"> F  </i>
   <i type="logical" name="EVENONLYGW"> F  </i>
   <i type="int" name="NKREDLFX">     1</i>
   <i type="int" name="NKREDLFY">     1</i>
   <i type="int" name="NKREDLFZ">     1</i>
   <i type="int" name="MAXMEM">  2800</i>
   <i type="int" name="TELESCOPE">     0</i>
   <i type="int" name="TAUPAR">     1</i>
   <i type="int" name="OMEGAPAR">    -1</i>
   <i name="LAMBDA">      1.00000000</i>
  </separator>
  <separator name="External order field" >
   <i name="OFIELD_KAPPA">      0.00000000</i>
   <v name="OFIELD_K">      0.00000000      0.00000000      0.00000000</v>
   <i name="OFIELD_Q6_NEAR">      0.00000000</i>
   <i name="OFIELD_Q6_FAR">      0.00000000</i>
   <i name="OFIELD_A">      0.00000000</i>
  </separator>
  <separator name="solvation model" >
   <i type="logical" name="LSOL"> F  </i>
  </separator>
 </parameters>
 <atominfo>
  <atoms>     120 </atoms>
  <types>       3 </types>
  <array name="atoms" >
   <dimension dim="1">ion</dimension>
   <field type="string">element</field>
   <field type="int">atomtype</field>
   <set>
    <rc><c>N </c><c>   1</c></rc>
    <rc><c>N </c><c>   1</c></rc>
    <rc><c>N </c><c>   1</c></rc>
    <rc><c>N </c><c>   1</c></rc>
    <rc><c>N </c><c>   1</c></rc>
    <rc><c>N </c><c>   1</c></rc>
    <rc><c>C </c><c>   2</c></rc>
    <rc><c>C </c><c>   2</c></rc>
    <rc><c>C </c><c>   2</c></rc>
    <rc><c>C </c><c>   2</c></rc>
    <rc><c>C </c><c>   2</c></rc>
    <rc><c>C </c><c>   2</c></rc>
    <rc><c>C </c><c>   2</c></rc>
    <rc><c>C </c><c>   2</c></rc>
    <rc><c>C </c><c>   2</c></rc>
    <rc><c>C </c><c>   2</c></rc>
    <rc><c>C </c><c>   2</c></rc>
    <rc><c>C </c><c>   2</c></rc>
    <rc><c>C </c><c>   2</c></rc>
    <rc><c>C </c><c>   2</c></rc>
    <rc><c>C </c><c>   2</c></rc>
    <rc><c>C </c><c>   2</c></rc>
    <rc><c>C </c><c>   2</c></rc>
    <rc><c>C </c><c>   2</c></rc>
    <rc><c>C </c><c>   2</c></rc>
    <rc><c>C </c><c>   2</c></rc>
    <rc><c>C </c><c>   2</c></rc>
    <rc><c>C </c><c>   2</c></rc>
    <rc><c>C </c><c>   2</c></rc>
    <rc><c>C </c><c>   2</c></rc>
    <rc><c>C </c><c>   2</c></rc>
    <rc><c>C </c><c>   2</c></rc>
    <rc><c>C </c><c>   2</c></rc>
    <rc><c>C </c><c>   2</c></rc>
    <rc><c>C </c><c>   2</c></rc>
    <rc><c>C </c><c>   2</c></rc>
    <rc><c>C </c><c>   2</c></rc>
    <rc><c>C </c><c>   2</c></rc>
    <rc><c>C </c><c>   2</c></rc>
    <rc><c>C </c><c>   2</c></rc>
    <rc><c>C </c><c>   2</c></rc>
    <rc><c>C </c><c>   2</c></rc>
    <rc><c>C </c><c>   2</c></rc>
    <rc><c>C </c><c>   2</c></rc>
    <rc><c>C </c><c>   2</c></rc>
    <rc><c>C </c><c>   2</c></rc>
    <rc><c>C </c><c>   2</c></rc>
    <rc><c>C </c><c>   2</c></rc>
    <rc><c>C </c><c>   2</c></rc>
    <rc><c>C </c><c>   2</c></rc>
    <rc><c>C </c><c>   2</c></rc>
    <rc><c>C </c><c>   2</c></rc>
    <rc><c>C </c><c>   2</c></rc>
    <rc><c>C </c><c>   2</c></rc>
    <rc><c>C </c><c>   2</c></rc>
    <rc><c>C </c><c>   2</c></rc>
    <rc><c>C </c><c>   2</c></rc>
    <rc><c>C </c><c>   2</c></rc>
    <rc><c>C </c><c>   2</c></rc>
    <rc><c>C </c><c>   2</c></rc>
    <rc><c>C </c><c>   2</c></rc>
    <rc><c>C </c><c>   2</c></rc>
    <rc><c>C </c><c>   2</c></rc>
    <rc><c>C </c><c>   2</c></rc>
    <rc><c>C </c><c>   2</c></rc>
    <rc><c>C </c><c>   2</c></rc>
    <rc><c>C </c><c>   2</c></rc>
    <rc><c>C </c><c>   2</c></rc>
    <rc><c>C </c><c>   2</c></rc>
    <rc><c>C </c><c>   2</c></rc>
    <rc><c>C </c><c>   2</c></rc>
    <rc><c>C </c><c>   2</c></rc>
    <rc><c>H </c><c>   3</c></rc>
    <rc><c>H </c><c>   3</c></rc>
    <rc><c>H </c><c>   3</c></rc>
    <rc><c>H </c><c>   3</c></rc>
    <rc><c>H </c><c>   3</c></rc>
    <rc><c>H </c><c>   3</c></rc>
    <rc><c>H </c><c>   3</c></rc>
    <rc><c>H </c><c>   3</c></rc>
    <rc><c>H </c><c>   3</c></rc>
    <rc><c>H </c><c>   3</c></rc>
    <rc><c>H </c><c>   3</c></rc>
    <rc><c>H </c><c>   3</c></rc>
    <rc><c>H </c><c>   3</c></rc>
    <rc><c>H </c><c>   3</c></rc>
    <rc><c>H </c><c>   3</c></rc>
    <rc><c>H </c><c>   3</c></rc>
    <rc><c>H </c><c>   3</c></rc>
    <rc><c>H </c><c>   3</c></rc>
    <rc><c>H </c><c>   3</c></rc>
    <rc><c>H </c><c>   3</c></rc>
    <rc><c>H </c><c>   3</c></rc>
    <rc><c>H </c><c>   3</c></rc>
    <rc><c>H </c><c>   3</c></rc>
    <rc><c>H </c><c>   3</c></rc>
    <rc><c>H </c><c>   3</c></rc>
    <rc><c>H </c><c>   3</c></rc>
    <rc><c>H </c><c>   3</c></rc>
    <rc><c>H </c><c>   3</c></rc>
    <rc><c>H </c><c>   3</c></rc>
    <rc><c>H </c><c>   3</c></rc>
    <rc><c>H </c><c>   3</c></rc>
    <rc><c>H </c><c>   3</c></rc>
    <rc><c>H </c><c>   3</c></rc>
    <rc><c>H </c><c>   3</c></rc>
    <rc><c>H </c><c>   3</c></rc>
    <rc><c>H </c><c>   3</c></rc>
    <rc><c>H </c><c>   3</c></rc>
    <rc><c>H </c><c>   3</c></rc>
    <rc><c>H </c><c>   3</c></rc>
    <rc><c>H </c><c>   3</c></rc>
    <rc><c>H </c><c>   3</c></rc>
    <rc><c>H </c><c>   3</c></rc>
    <rc><c>H </c><c>   3</c></rc>
    <rc><c>H </c><c>   3</c></rc>
    <rc><c>H </c><c>   3</c></rc>
    <rc><c>H </c><c>   3</c></rc>
    <rc><c>H </c><c>   3</c></rc>
    <rc><c>H </c><c>   3</c></rc>
   </set>
  </array>
  <array name="atomtypes" >
   <dimension dim="1">type</dimension>
   <field type="int">atomspertype</field>
   <field type="string">element</field>
   <field>mass</field>
   <field>valence</field>
   <field type="string">pseudopotential</field>
   <set>
    <rc><c>   6</c><c>N </c><c>     14.00100000</c><c>      5.00000000</c><c>  PAW_PBE N 08Apr2002                   </c></rc>
    <rc><c>  66</c><c>C </c><c>     12.01100000</c><c>      4.00000000</c><c>  PAW_PBE C 08Apr2002                   </c></rc>
    <rc><c>  48</c><c>H </c><c>      1.00000000</c><c>      1.00000000</c><c>  PAW_PBE H 15Jun2001                   </c></rc>
   </set>
  </array>
 </atominfo>
 <structure name="initialpos" >
  <crystal>
   <varray name="basis" >
    <v>      29.49298422      -0.00000001       0.00000000 </v>
    <v>     -14.74649210      25.54167357       0.00000000 </v>
    <v>       0.00000000       0.00000000      20.00000000 </v>
   </varray>
   <i name="volume">  15066.00350986 </i>
   <varray name="rec_basis" >
    <v>       0.03390637       0.01957585       0.00000000 </v>
    <v>       0.00000000       0.03915170       0.00000000 </v>
    <v>       0.00000000       0.00000000       0.05000000 </v>
   </varray>
  </crystal>
  <varray name="positions" >
   <v>       0.38715889       0.69322671       0.50194917 </v>
   <v>       0.30606782       0.61284111       0.50194917 </v>
   <v>       0.30677329       0.69393218       0.50194917 </v>
   <v>       0.61283679       0.30682504       0.50388644 </v>
   <v>       0.69398826       0.38716321       0.50388644 </v>
   <v>       0.69317496       0.30601174       0.50388644 </v>
   <v>       0.02920254       0.49758517       0.55461954 </v>
   <v>       0.02531141       0.53106318       0.44517484 </v>
   <v>       0.35939903       0.71812288       0.50192853 </v>
   <v>       0.35872385       0.64060097       0.50192853 </v>
   <v>       0.28187712       0.64127615       0.50192853 </v>
   <v>       0.38730636       0.61131429       0.50143489 </v>
   <v>       0.44163905       0.63726268       0.51227643 </v>
   <v>       0.46839281       0.60955387       0.51155559 </v>
   <v>       0.44205404       0.55535878       0.49888316 </v>
   <v>       0.38765846       0.52970558       0.48807729 </v>
   <v>       0.36058594       0.55706216       0.48981373 </v>
   <v>       0.38868571       0.77599208       0.50143489 </v>
   <v>       0.44293784       0.80352379       0.48981373 </v>
   <v>       0.47029442       0.85795288       0.48807729 </v>
   <v>       0.44464122       0.88669526       0.49888316 </v>
   <v>       0.39044613       0.85883894       0.51155559 </v>
   <v>       0.36273732       0.80437637       0.51227643 </v>
   <v>       0.22400792       0.61269364       0.50143489 </v>
   <v>       0.19647621       0.63941406       0.48981373 </v>
   <v>       0.14204712       0.61234154       0.48807729 </v>
   <v>       0.11330474       0.55794596       0.49888316 </v>
   <v>       0.14116106       0.53160719       0.51155559 </v>
   <v>       0.19562363       0.55836095       0.51227643 </v>
   <v>       0.64055277       0.28187499       0.50390497 </v>
   <v>       0.64132222       0.35944723       0.50390497 </v>
   <v>       0.71812501       0.35867778       0.50390497 </v>
   <v>       0.61282685       0.38881946       0.50437892 </v>
   <v>       0.55849485       0.36292916       0.49362596 </v>
   <v>       0.53183033       0.39072191       0.49419640 </v>
   <v>       0.55827044       0.44495703       0.50659394 </v>
   <v>       0.61267279       0.47055740       0.51736862 </v>
   <v>       0.63965394       0.44310366       0.51580450 </v>
   <v>       0.61118054       0.22400739       0.50437892 </v>
   <v>       0.55689634       0.19655029       0.51580450 </v>
   <v>       0.52944260       0.14211539       0.51736862 </v>
   <v>       0.55504297       0.11331341       0.50659394 </v>
   <v>       0.60927809       0.14110841       0.49419640 </v>
   <v>       0.63707084       0.19556568       0.49362596 </v>
   <v>       0.77599261       0.38717315       0.50437892 </v>
   <v>       0.80344971       0.36034606       0.51580450 </v>
   <v>       0.85788461       0.38732721       0.51736862 </v>
   <v>       0.88668659       0.44172956       0.50659394 </v>
   <v>       0.85889159       0.46816967       0.49419640 </v>
   <v>       0.80443432       0.44150515       0.49362596 </v>
   <v>       0.52918700       0.47392777       0.50642675 </v>
   <v>       0.53145833       0.50614154       0.56015997 </v>
   <v>       0.50241483       0.53161737       0.55461954 </v>
   <v>       0.56209435       0.51246025       0.62328011 </v>
   <v>       0.52607223       0.05525923       0.50642675 </v>
   <v>       0.49385846       0.02531679       0.56015997 </v>
   <v>       0.46838263       0.97079746       0.55461954 </v>
   <v>       0.48753975       0.04963410       0.62328011 </v>
   <v>       0.94474077       0.47081300       0.50642675 </v>
   <v>       0.97468321       0.46854167       0.56015997 </v>
   <v>       0.95036590       0.43790565       0.62328011 </v>
   <v>       0.47120149       0.52645693       0.49891809 </v>
   <v>       0.46893682       0.49424823       0.44517484 </v>
   <v>       0.49799625       0.46878420       0.45070822 </v>
   <v>       0.43825714       0.48787885       0.38207386 </v>
   <v>       0.47354307       0.94474456       0.49891809 </v>
   <v>       0.50575177       0.97468859       0.44517484 </v>
   <v>       0.53121580       0.02921205       0.45070822 </v>
   <v>       0.51212115       0.95037830       0.38207386 </v>
   <v>       0.05525544       0.52879851       0.49891809 </v>
   <v>       0.97078795       0.50200375       0.45070822 </v>
   <v>       0.04962170       0.56174286       0.38207386 </v>
   <v>       0.02231085       0.54484776       0.33994069 </v>
   <v>       0.05941900       0.60285342       0.38684946 </v>
   <v>       0.51243978       0.87875570       0.47935293 </v>
   <v>       0.46304910       0.78141814       0.48210814 </v>
   <v>       0.36992774       0.88054122       0.51994082 </v>
   <v>       0.32064867       0.78296082       0.52124861 </v>
   <v>       0.21858186       0.68163096       0.48210814 </v>
   <v>       0.12124430       0.63368407       0.47935293 </v>
   <v>       0.21703918       0.53768785       0.52124861 </v>
   <v>       0.11945878       0.48938652       0.51994082 </v>
   <v>       0.31836904       0.53695090       0.48210814 </v>
   <v>       0.36631593       0.48756022       0.47935293 </v>
   <v>       0.51061348       0.63007226       0.51994082 </v>
   <v>       0.46231215       0.67935133       0.52124861 </v>
   <v>       0.48726740       0.12134824       0.52587943 </v>
   <v>       0.53680923       0.21868404       0.52350329 </v>
   <v>       0.62974808       0.11935074       0.48587930 </v>
   <v>       0.67918454       0.21694450       0.48488568 </v>
   <v>       0.78131596       0.31812518       0.52350329 </v>
   <v>       0.87865176       0.36591916       0.52587943 </v>
   <v>       0.78305550       0.46224004       0.48488568 </v>
   <v>       0.88064926       0.51039734       0.48587930 </v>
   <v>       0.68187482       0.46319077       0.52350329 </v>
   <v>       0.63408084       0.51273260       0.52587943 </v>
   <v>       0.48960266       0.37025192       0.48587930 </v>
   <v>       0.53775996       0.32081546       0.48488568 </v>
   <v>       0.50286045       0.55570994       0.59641410 </v>
   <v>       0.56254489       0.47649106       0.63610775 </v>
   <v>       0.54514394       0.52279475       0.66542622 </v>
   <v>       0.60319713       0.54381186       0.61858213 </v>
   <v>       0.44429006       0.94715051       0.59641410 </v>
   <v>       0.52350894       0.08605382       0.63610775 </v>
   <v>       0.47720525       0.02234919       0.66542622 </v>
   <v>       0.45618814       0.05938526       0.61858213 </v>
   <v>       0.05284949       0.49713955       0.59641410 </v>
   <v>       0.91394618       0.43745511       0.63610775 </v>
   <v>       0.97765081       0.45485606       0.66542622 </v>
   <v>       0.94061474       0.39680287       0.61858213 </v>
   <v>       0.49756430       0.44470429       0.40890263 </v>
   <v>       0.43783559       0.52385586       0.36918234 </v>
   <v>       0.39714658       0.45656558       0.38684946 </v>
   <v>       0.45515224       0.47746309       0.33994069 </v>
   <v>       0.55529571       0.05286001       0.40890263 </v>
   <v>       0.47614414       0.91397973       0.36918234 </v>
   <v>       0.54343442       0.94058100       0.38684946 </v>
   <v>       0.52253691       0.97768915       0.33994069 </v>
   <v>       0.94713999       0.50243570       0.40890263 </v>
   <v>       0.08602027       0.56216441       0.36918234 </v>
  </varray>
 </structure>
 <calculation>
  <scstep>
   <time name="dav">  618.77  627.00</time>
   <time name="total">  619.04  627.27</time>
   <energy>
    <i name="alphaZ">     36.35768397 </i>
    <i name="ewald">  41301.51183462 </i>
    <i name="hartreedc"> -51025.24733276 </i>
    <i name="XCdc">   1158.38603244 </i>
    <i name="pawpsdc">  30733.17916305 </i>
    <i name="pawaedc"> -30787.84384503 </i>
    <i name="eentropy">     -0.00000000 </i>
    <i name="bandstr">  -4136.19822804 </i>
    <i name="atom">  11898.35356128 </i>
    <i name="e_fr_energy">   -821.50113047 </i>
    <i name="e_wo_entrp">   -821.50113047 </i>
    <i name="e_0_energy">   -821.50113047 </i>
   </energy>
  </scstep>
  <scstep>
   <time name="dav">  675.34  683.91</time>
   <time name="total">  675.34  683.91</time>
   <energy>
    <i name="e_fr_energy">   -821.92072850 </i>
    <i name="e_wo_entrp">   -821.92072850 </i>
    <i name="e_0_energy">   -821.92072850 </i>
   </energy>
  </scstep>
  <scstep>
   <time name="dav">  759.08  769.00</time>
   <time name="total">  759.08  769.00</time>
   <energy>
    <i name="e_fr_energy">   -821.93148153 </i>
    <i name="e_wo_entrp">   -821.93148153 </i>
    <i name="e_0_energy">   -821.93148153 </i>
   </energy>
  </scstep>
  <scstep>
   <time name="dav">  667.15  676.28</time>
   <time name="total">  667.16  676.28</time>
   <energy>
    <i name="e_fr_energy">   -821.93170364 </i>
    <i name="e_wo_entrp">   -821.93170364 </i>
    <i name="e_0_energy">   -821.93170364 </i>
   </energy>
  </scstep>
  <scstep>
   <time name="dav">  645.63  653.78</time>
   <time name="total">  645.64  653.79</time>
   <energy>
    <i name="e_fr_energy">   -821.93171563 </i>
    <i name="e_wo_entrp">   -821.93171563 </i>
    <i name="e_0_energy">   -821.93171563 </i>
   </energy>
  </scstep>
  <scstep>
   <time name="dav">  516.57  523.14</time>
   <time name="total">  516.57  523.14</time>
   <energy>
    <i name="alphaZ">     36.35768397 </i>
    <i name="ewald">  41301.51183462 </i>
    <i name="hartreedc"> -51025.24733276 </i>
    <i name="XCdc">   1158.38603244 </i>
    <i name="pawpsdc">  30733.17916305 </i>
    <i name="pawaedc"> -30787.84384503 </i>
    <i name="eentropy">     -0.00000000 </i>
    <i name="bandstr">  -4136.62881351 </i>
    <i name="atom">  11898.35356128 </i>
    <i name="e_fr_energy">   -821.93171594 </i>
    <i name="e_wo_entrp">   -821.93171594 </i>
    <i name="e_0_energy">   -821.93171594 </i>
   </energy>
  </scstep>
  <structure>
   <crystal>
    <varray name="basis" >
     <v>      29.49298422      -0.00000001       0.00000000 </v>
     <v>     -14.74649210      25.54167357       0.00000000 </v>
     <v>       0.00000000       0.00000000      20.00000000 </v>
    </varray>
    <i name="volume">  15066.00350986 </i>
    <varray name="rec_basis" >
     <v>       0.03390637       0.01957585       0.00000000 </v>
     <v>       0.00000000       0.03915170       0.00000000 </v>
     <v>       0.00000000       0.00000000       0.05000000 </v>
    </varray>
   </crystal>
   <varray name="positions" >
    <v>       0.38715889       0.69322671       0.50194917 </v>
    <v>       0.30606782       0.61284111       0.50194917 </v>
    <v>       0.30677329       0.69393218       0.50194917 </v>
    <v>       0.61283679       0.30682504       0.50388644 </v>
    <v>       0.69398826       0.38716321       0.50388644 </v>
    <v>       0.69317496       0.30601174       0.50388644 </v>
    <v>       0.02920254       0.49758517       0.55461954 </v>
    <v>       0.02531141       0.53106318       0.44517484 </v>
    <v>       0.35939903       0.71812288       0.50192853 </v>
    <v>       0.35872385       0.64060097       0.50192853 </v>
    <v>       0.28187712       0.64127615       0.50192853 </v>
    <v>       0.38730636       0.61131429       0.50143489 </v>
    <v>       0.44163905       0.63726268       0.51227643 </v>
    <v>       0.46839281       0.60955387       0.51155559 </v>
    <v>       0.44205404       0.55535878       0.49888316 </v>
    <v>       0.38765846       0.52970558       0.48807729 </v>
    <v>       0.36058594       0.55706216       0.48981373 </v>
    <v>       0.38868571       0.77599208       0.50143489 </v>
    <v>       0.44293784       0.80352379       0.48981373 </v>
    <v>       0.47029442       0.85795288       0.48807729 </v>
    <v>       0.44464122       0.88669526       0.49888316 </v>
    <v>       0.39044613       0.85883894       0.51155559 </v>
    <v>       0.36273732       0.80437637       0.51227643 </v>
    <v>       0.22400792       0.61269364       0.50143489 </v>
    <v>       0.19647621       0.63941406       0.48981373 </v>
    <v>       0.14204712       0.61234154       0.48807729 </v>
    <v>       0.11330474       0.55794596       0.49888316 </v>
    <v>       0.14116106       0.53160719       0.51155559 </v>
    <v>       0.19562363       0.55836095       0.51227643 </v>
    <v>       0.64055277       0.28187499       0.50390497 </v>
    <v>       0.64132222       0.35944723       0.50390497 </v>
    <v>       0.71812501       0.35867778       0.50390497 </v>
    <v>       0.61282685       0.38881946       0.50437892 </v>
    <v>       0.55849485       0.36292916       0.49362596 </v>
    <v>       0.53183033       0.39072191       0.49419640 </v>
    <v>       0.55827044       0.44495703       0.50659394 </v>
    <v>       0.61267279       0.47055740       0.51736862 </v>
    <v>       0.63965394       0.44310366       0.51580450 </v>
    <v>       0.61118054       0.22400739       0.50437892 </v>
    <v>       0.55689634       0.19655029       0.51580450 </v>
    <v>       0.52944260       0.14211539       0.51736862 </v>
    <v>       0.55504297       0.11331341       0.50659394 </v>
    <v>       0.60927809       0.14110841       0.49419640 </v>
    <v>       0.63707084       0.19556568       0.49362596 </v>
    <v>       0.77599261       0.38717315       0.50437892 </v>
    <v>       0.80344971       0.36034606       0.51580450 </v>
    <v>       0.85788461       0.38732721       0.51736862 </v>
    <v>       0.88668659       0.44172956       0.50659394 </v>
    <v>       0.85889159       0.46816967       0.49419640 </v>
    <v>       0.80443432       0.44150515       0.49362596 </v>
    <v>       0.52918700       0.47392777       0.50642675 </v>
    <v>       0.53145833       0.50614154       0.56015997 </v>
    <v>       0.50241483       0.53161737       0.55461954 </v>
    <v>       0.56209435       0.51246025       0.62328011 </v>
    <v>       0.52607223       0.05525923       0.50642675 </v>
    <v>       0.49385846       0.02531679       0.56015997 </v>
    <v>       0.46838263       0.97079746       0.55461954 </v>
    <v>       0.48753975       0.04963410       0.62328011 </v>
    <v>       0.94474077       0.47081300       0.50642675 </v>
    <v>       0.97468321       0.46854167       0.56015997 </v>
    <v>       0.95036590       0.43790565       0.62328011 </v>
    <v>       0.47120149       0.52645693       0.49891809 </v>
    <v>       0.46893682       0.49424823       0.44517484 </v>
    <v>       0.49799625       0.46878420       0.45070822 </v>
    <v>       0.43825714       0.48787885       0.38207386 </v>
    <v>       0.47354307       0.94474456       0.49891809 </v>
    <v>       0.50575177       0.97468859       0.44517484 </v>
    <v>       0.53121580       0.02921205       0.45070822 </v>
    <v>       0.51212115       0.95037830       0.38207386 </v>
    <v>       0.05525544       0.52879851       0.49891809 </v>
    <v>       0.97078795       0.50200375       0.45070822 </v>
    <v>       0.04962170       0.56174286       0.38207386 </v>
    <v>       0.02231085       0.54484776       0.33994069 </v>
    <v>       0.05941900       0.60285342       0.38684946 </v>
    <v>       0.51243978       0.87875570       0.47935293 </v>
    <v>       0.46304910       0.78141814       0.48210814 </v>
    <v>       0.36992774       0.88054122       0.51994082 </v>
    <v>       0.32064867       0.78296082       0.52124861 </v>
    <v>       0.21858186       0.68163096       0.48210814 </v>
    <v>       0.12124430       0.63368407       0.47935293 </v>
    <v>       0.21703918       0.53768785       0.52124861 </v>
    <v>       0.11945878       0.48938652       0.51994082 </v>
    <v>       0.31836904       0.53695090       0.48210814 </v>
    <v>       0.36631593       0.48756022       0.47935293 </v>
    <v>       0.51061348       0.63007226       0.51994082 </v>
    <v>       0.46231215       0.67935133       0.52124861 </v>
    <v>       0.48726740       0.12134824       0.52587943 </v>
    <v>       0.53680923       0.21868404       0.52350329 </v>
    <v>       0.62974808       0.11935074       0.48587930 </v>
    <v>       0.67918454       0.21694450       0.48488568 </v>
    <v>       0.78131596       0.31812518       0.52350329 </v>
    <v>       0.87865176       0.36591916       0.52587943 </v>
    <v>       0.78305550       0.46224004       0.48488568 </v>
    <v>       0.88064926       0.51039734       0.48587930 </v>
    <v>       0.68187482       0.46319077       0.52350329 </v>
    <v>       0.63408084       0.51273260       0.52587943 </v>
    <v>       0.48960266       0.37025192       0.48587930 </v>
    <v>       0.53775996       0.32081546       0.48488568 </v>
    <v>       0.50286045       0.55570994       0.59641410 </v>
    <v>       0.56254489       0.47649106       0.63610775 </v>
    <v>       0.54514394       0.52279475       0.66542622 </v>
    <v>       0.60319713       0.54381186       0.61858213 </v>
    <v>       0.44429006       0.94715051       0.59641410 </v>
    <v>       0.52350894       0.08605382       0.63610775 </v>
    <v>       0.47720525       0.02234919       0.66542622 </v>
    <v>       0.45618814       0.05938526       0.61858213 </v>
    <v>       0.05284949       0.49713955       0.59641410 </v>
    <v>       0.91394618       0.43745511       0.63610775 </v>
    <v>       0.97765081       0.45485606       0.66542622 </v>
    <v>       0.94061474       0.39680287       0.61858213 </v>
    <v>       0.49756430       0.44470429       0.40890263 </v>
    <v>       0.43783559       0.52385586       0.36918234 </v>
    <v>       0.39714658       0.45656558       0.38684946 </v>
    <v>       0.45515224       0.47746309       0.33994069 </v>
    <v>       0.55529571       0.05286001       0.40890263 </v>
    <v>       0.47614414       0.91397973       0.36918234 </v>
    <v>       0.54343442       0.94058100       0.38684946 </v>
    <v>       0.52253691       0.97768915       0.33994069 </v>
    <v>       0.94713999       0.50243570       0.40890263 </v>
    <v>       0.08602027       0.56216441       0.36918234 </v>
   </varray>
  </structure>
  <varray name="forces" >
   <v>      -0.00348804       0.00695366      -0.00109101 </v>
   <v>       0.00776607      -0.00045610      -0.00109101 </v>
   <v>      -0.00427803      -0.00649757      -0.00109101 </v>
   <v>       0.00067686       0.00174998      -0.00461378 </v>
   <v>       0.00117710      -0.00146117      -0.00461378 </v>
   <v>      -0.00185396      -0.00028881      -0.00461378 </v>
   <v>      -0.00009564      -0.00037935      -0.00067915 </v>
   <v>      -0.00022065       0.00288432       0.00199440 </v>
   <v>      -0.00568911       0.00206500       0.00048196 </v>
   <v>       0.00463289       0.00389441       0.00048196 </v>
   <v>       0.00105621      -0.00595941       0.00048196 </v>
   <v>       0.00364372       0.00310668      -0.00005829 </v>
   <v>      -0.00334988      -0.00125608       0.00080117 </v>
   <v>      -0.00364923       0.00398106      -0.00202589 </v>
   <v>      -0.00140102       0.00473825      -0.00132935 </v>
   <v>      -0.00112796      -0.00214459      -0.00310932 </v>
   <v>       0.00073201       0.00064882       0.00355097 </v>
   <v>      -0.00451232       0.00160222      -0.00005829 </v>
   <v>      -0.00092790       0.00030953       0.00355097 </v>
   <v>       0.00242125       0.00009546      -0.00310932 </v>
   <v>      -0.00340294      -0.00358244      -0.00132935 </v>
   <v>      -0.00162308      -0.00515086      -0.00202589 </v>
   <v>       0.00276273      -0.00227304       0.00080117 </v>
   <v>       0.00086860      -0.00470889      -0.00005829 </v>
   <v>       0.00019589      -0.00095835       0.00355097 </v>
   <v>      -0.00129329       0.00204914      -0.00310932 </v>
   <v>       0.00480395      -0.00115581      -0.00132935 </v>
   <v>       0.00527231       0.00116980      -0.00202589 </v>
   <v>       0.00058715       0.00352912       0.00080117 </v>
   <v>      -0.00302391       0.00273752       0.00484196 </v>
   <v>       0.00388271       0.00125002       0.00484196 </v>
   <v>      -0.00085881      -0.00398754       0.00484196 </v>
   <v>       0.00650105       0.00293399       0.00024710 </v>
   <v>       0.00183787       0.00086154       0.00188655 </v>
   <v>      -0.00187448       0.00000665      -0.00196294 </v>
   <v>       0.00057000      -0.00400491       0.00043487 </v>
   <v>      -0.00359163      -0.00231571       0.00010022 </v>
   <v>      -0.00418980       0.00341343      -0.00151570 </v>
   <v>      -0.00579143       0.00416308       0.00024710 </v>
   <v>      -0.00086121      -0.00533519      -0.00151570 </v>
   <v>       0.00380128      -0.00195259       0.00010022 </v>
   <v>       0.00318335       0.00249609       0.00043487 </v>
   <v>       0.00093148      -0.00162668      -0.00196294 </v>
   <v>      -0.00166505       0.00116087       0.00188655 </v>
   <v>      -0.00070961      -0.00709707       0.00024710 </v>
   <v>       0.00505101       0.00192176      -0.00151570 </v>
   <v>      -0.00020965       0.00426830       0.00010022 </v>
   <v>      -0.00375335       0.00150881       0.00043487 </v>
   <v>       0.00094300       0.00162002      -0.00196294 </v>
   <v>      -0.00017282      -0.00202241       0.00188655 </v>
   <v>       0.00609814      -0.00159339      -0.00153959 </v>
   <v>       0.00339157       0.00031477      -0.00246615 </v>
   <v>       0.00037634       0.00010685      -0.00067915 </v>
   <v>      -0.00151449       0.00150595      -0.00315591 </v>
   <v>      -0.00166916       0.00607784      -0.00153959 </v>
   <v>      -0.00196838       0.00277979      -0.00246615 </v>
   <v>      -0.00028070       0.00027250      -0.00067915 </v>
   <v>      -0.00054695      -0.00206456      -0.00315591 </v>
   <v>      -0.00442898      -0.00448445      -0.00153959 </v>
   <v>      -0.00142318      -0.00309457      -0.00246615 </v>
   <v>       0.00206144       0.00055861      -0.00315591 </v>
   <v>      -0.00168501      -0.00053232       0.00145477 </v>
   <v>      -0.00238757      -0.00163325       0.00199440 </v>
   <v>      -0.00077579       0.00094791       0.00074008 </v>
   <v>       0.00136848       0.00253508       0.00637298 </v>
   <v>       0.00130351      -0.00119310       0.00145477 </v>
   <v>       0.00260822      -0.00125107       0.00199440 </v>
   <v>      -0.00043302      -0.00114581       0.00074008 </v>
   <v>      -0.00287968      -0.00008240       0.00637298 </v>
   <v>       0.00038150       0.00172542       0.00145477 </v>
   <v>       0.00120881       0.00019789       0.00074008 </v>
   <v>       0.00151120      -0.00245268       0.00637298 </v>
   <v>      -0.00040517       0.00361064      -0.00341034 </v>
   <v>      -0.00020057       0.00135057      -0.00143758 </v>
   <v>       0.00228384       0.00304022       0.00225213 </v>
   <v>       0.00160809       0.00108034      -0.00026442 </v>
   <v>       0.00154964       0.00260976      -0.00363359 </v>
   <v>       0.00531193       0.00224366      -0.00515411 </v>
   <v>      -0.00173965       0.00085248      -0.00026442 </v>
   <v>      -0.00377483       0.00045775       0.00225213 </v>
   <v>      -0.00459903       0.00347844      -0.00515411 </v>
   <v>      -0.00303494       0.00003714      -0.00363359 </v>
   <v>       0.00013156      -0.00193282      -0.00026442 </v>
   <v>       0.00149099      -0.00349797       0.00225213 </v>
   <v>       0.00148530      -0.00264691      -0.00363359 </v>
   <v>      -0.00071290      -0.00572209      -0.00515411 </v>
   <v>      -0.00010395      -0.00053766       0.00005329 </v>
   <v>       0.00441794       0.00113849      -0.00166472 </v>
   <v>      -0.00130056      -0.00304967       0.00360609 </v>
   <v>      -0.00055381      -0.00130701       0.00076141 </v>
   <v>      -0.00319493       0.00325681      -0.00166472 </v>
   <v>       0.00051760       0.00017880       0.00005329 </v>
   <v>       0.00140882       0.00017389       0.00076141 </v>
   <v>       0.00329137       0.00039852       0.00360609 </v>
   <v>      -0.00122301      -0.00439530      -0.00166472 </v>
   <v>      -0.00041365       0.00035886       0.00005329 </v>
   <v>      -0.00199082       0.00265115       0.00360609 </v>
   <v>      -0.00085500       0.00113312       0.00076141 </v>
   <v>      -0.00190167       0.00119862      -0.00159598 </v>
   <v>       0.00145531       0.00237258       0.00166156 </v>
   <v>       0.00185376       0.00263886       0.00417236 </v>
   <v>       0.00119686       0.00110496       0.00103127 </v>
   <v>      -0.00008720      -0.00224621      -0.00159598 </v>
   <v>      -0.00278237       0.00007404       0.00166156 </v>
   <v>      -0.00321220       0.00028598       0.00417236 </v>
   <v>      -0.00155535       0.00048403       0.00103127 </v>
   <v>       0.00198887       0.00104758      -0.00159598 </v>
   <v>       0.00132707      -0.00244663       0.00166156 </v>
   <v>       0.00135844      -0.00292484       0.00417236 </v>
   <v>       0.00035849      -0.00158899       0.00103127 </v>
   <v>       0.00095579      -0.00165217       0.00539787 </v>
   <v>      -0.00104000      -0.00322998      -0.00113518 </v>
   <v>      -0.00106935      -0.00084898      -0.00143758 </v>
   <v>      -0.00292433      -0.00215621      -0.00341034 </v>
   <v>       0.00095292       0.00165382       0.00539787 </v>
   <v>       0.00331725       0.00071433      -0.00113518 </v>
   <v>       0.00126991      -0.00050159      -0.00143758 </v>
   <v>       0.00332949      -0.00145444      -0.00341034 </v>
   <v>      -0.00190872      -0.00000166       0.00539787 </v>
   <v>      -0.00227725       0.00251565      -0.00113518 </v>
  </varray>
  <varray name="stress" >
   <v>       0.01026735       0.00000000       0.00000000 </v>
   <v>      -0.00000000       0.01026735      -0.00000000 </v>
   <v>       0.00000000       0.00000000      -0.15114262 </v>
  </varray>
  <energy>
   <i name="e_fr_energy">   -824.26890221 </i>
   <i name="e_wo_entrp">   -824.26890221 </i>
   <i name="e_0_energy">     -0.00000000 </i>
  </energy>
  <time name="totalsc"> 4576.67 4637.95</time>
  <eigenvalues>
   <array>
    <dimension dim="1">band</dimension>
    <dimension dim="2">kpoint</dimension>
    <dimension dim="3">spin</dimension>
    <field>eigene</field>
    <field>occ</field>
    <set>
     <set comment="spin 1">
      <set comment="kpoint 1">
       <r>  -25.0719    1.0000 </r>
       <r>  -25.0702    1.0000 </r>
       <r>  -22.1598    1.0000 </r>
       <r>  -22.1597    1.0000 </r>
       <r>  -22.1575    1.0000 </r>
       <r>  -22.1574    1.0000 </r>
       <r>  -21.5121    1.0000 </r>
       <r>  -21.4815    1.0000 </r>
       <r>  -21.4810    1.0000 </r>
       <r>  -21.1675    1.0000 </r>
       <r>  -21.1001    1.0000 </r>
       <r>  -21.0998    1.0000 </r>
       <r>  -20.7681    1.0000 </r>
       <r>  -20.7261    1.0000 </r>
       <r>  -20.7258    1.0000 </r>
       <r>  -19.5579    1.0000 </r>
       <r>  -19.5575    1.0000 </r>
       <r>  -19.5227    1.0000 </r>
       <r>  -18.9931    1.0000 </r>
       <r>  -18.9928    1.0000 </r>
       <r>  -18.9586    1.0000 </r>
       <r>  -18.7714    1.0000 </r>
       <r>  -18.7711    1.0000 </r>
       <r>  -18.5538    1.0000 </r>
       <r>  -18.2257    1.0000 </r>
       <r>  -18.2142    1.0000 </r>
       <r>  -18.2141    1.0000 </r>
       <r>  -18.2027    1.0000 </r>
       <r>  -18.2026    1.0000 </r>
       <r>  -18.1995    1.0000 </r>
       <r>  -17.7870    1.0000 </r>
       <r>  -17.7867    1.0000 </r>
       <r>  -17.4787    1.0000 </r>
       <r>  -17.4783    1.0000 </r>
       <r>  -17.4670    1.0000 </r>
       <r>  -17.4491    1.0000 </r>
       <r>  -16.6211    1.0000 </r>
       <r>  -16.6210    1.0000 </r>
       <r>  -16.1721    1.0000 </r>
       <r>  -16.1719    1.0000 </r>
       <r>  -15.8654    1.0000 </r>
       <r>  -15.7078    1.0000 </r>
       <r>  -15.7075    1.0000 </r>
       <r>  -15.6642    1.0000 </r>
       <r>  -14.9879    1.0000 </r>
       <r>  -14.9453    1.0000 </r>
       <r>  -14.9451    1.0000 </r>
       <r>  -14.9163    1.0000 </r>
       <r>  -14.6682    1.0000 </r>
       <r>  -14.6175    1.0000 </r>
       <r>  -14.6173    1.0000 </r>
       <r>  -14.5345    1.0000 </r>
       <r>  -14.5345    1.0000 </r>
       <r>  -14.2613    1.0000 </r>
       <r>  -14.0049    1.0000 </r>
       <r>  -14.0046    1.0000 </r>
       <r>  -13.8901    1.0000 </r>
       <r>  -13.8899    1.0000 </r>
       <r>  -13.4707    1.0000 </r>
       <r>  -13.4117    1.0000 </r>
       <r>  -13.4115    1.0000 </r>
       <r>  -13.0347    1.0000 </r>
       <r>  -12.9909    1.0000 </r>
       <r>  -12.9772    1.0000 </r>
       <r>  -12.8976    1.0000 </r>
       <r>  -12.1557    1.0000 </r>
       <r>  -12.1555    1.0000 </r>
       <r>  -12.1270    1.0000 </r>
       <r>  -12.1267    1.0000 </r>
       <r>  -11.8407    1.0000 </r>
       <r>  -11.5849    1.0000 </r>
       <r>  -11.5846    1.0000 </r>
       <r>  -11.5263    1.0000 </r>
       <r>  -11.4174    1.0000 </r>
       <r>  -11.2347    1.0000 </r>
       <r>  -11.2346    1.0000 </r>
       <r>  -10.9719    1.0000 </r>
       <r>  -10.9693    1.0000 </r>
       <r>  -10.9693    1.0000 </r>
       <r>  -10.9446    1.0000 </r>
       <r>  -10.6890    1.0000 </r>
       <r>  -10.6888    1.0000 </r>
       <r>  -10.6730    1.0000 </r>
       <r>  -10.6729    1.0000 </r>
       <r>  -10.5960    1.0000 </r>
       <r>  -10.5150    1.0000 </r>
       <r>  -10.4669    1.0000 </r>
       <r>  -10.4382    1.0000 </r>
       <r>  -10.4127    1.0000 </r>
       <r>  -10.4126    1.0000 </r>
       <r>  -10.2035    1.0000 </r>
       <r>  -10.2032    1.0000 </r>
       <r>  -10.1551    1.0000 </r>
       <r>  -10.0467    1.0000 </r>
       <r>  -10.0465    1.0000 </r>
       <r>   -9.9977    1.0000 </r>
       <r>   -9.9483    1.0000 </r>
       <r>   -9.9482    1.0000 </r>
       <r>   -9.9248    1.0000 </r>
       <r>   -9.8350    1.0000 </r>
       <r>   -9.8349    1.0000 </r>
       <r>   -9.7302    1.0000 </r>
       <r>   -9.7085    1.0000 </r>
       <r>   -9.7082    1.0000 </r>
       <r>   -9.7049    1.0000 </r>
       <r>   -9.6225    1.0000 </r>
       <r>   -9.6224    1.0000 </r>
       <r>   -9.5791    1.0000 </r>
       <r>   -9.4419    1.0000 </r>
       <r>   -9.4416    1.0000 </r>
       <r>   -9.3428    1.0000 </r>
       <r>   -9.3397    1.0000 </r>
       <r>   -9.3393    1.0000 </r>
       <r>   -9.2687    1.0000 </r>
       <r>   -9.1772    1.0000 </r>
       <r>   -9.1771    1.0000 </r>
       <r>   -9.1436    1.0000 </r>
       <r>   -9.1435    1.0000 </r>
       <r>   -8.7826    1.0000 </r>
       <r>   -8.7825    1.0000 </r>
       <r>   -8.7336    1.0000 </r>
       <r>   -8.6825    1.0000 </r>
       <r>   -8.6680    1.0000 </r>
       <r>   -8.6676    1.0000 </r>
       <r>   -8.6635    1.0000 </r>
       <r>   -8.4715    1.0000 </r>
       <r>   -8.3441    1.0000 </r>
       <r>   -8.3411    1.0000 </r>
       <r>   -8.3121    1.0000 </r>
       <r>   -8.3119    1.0000 </r>
       <r>   -8.1456    1.0000 </r>
       <r>   -8.1453    1.0000 </r>
       <r>   -8.1409    1.0000 </r>
       <r>   -8.1404    1.0000 </r>
       <r>   -8.1402    1.0000 </r>
       <r>   -8.0074    1.0000 </r>
       <r>   -7.9696    1.0000 </r>
       <r>   -7.9695    1.0000 </r>
       <r>   -7.8436    1.0000 </r>
       <r>   -7.8434    1.0000 </r>
       <r>   -7.7187    1.0000 </r>
       <r>   -7.6935    1.0000 </r>
       <r>   -7.6661    1.0000 </r>
       <r>   -7.6660    1.0000 </r>
       <r>   -7.6357    1.0000 </r>
       <r>   -7.6354    1.0000 </r>
       <r>   -7.5550    1.0000 </r>
       <r>   -7.4901    1.0000 </r>
       <r>   -7.4899    1.0000 </r>
       <r>   -6.4814    1.0000 </r>
       <r>   -6.3822    1.0000 </r>
       <r>   -6.3819    1.0000 </r>
       <r>   -6.1401    1.0000 </r>
       <r>   -6.1400    1.0000 </r>
       <r>   -6.1151    1.0000 </r>
       <r>   -6.1146    1.0000 </r>
       <r>   -6.1116    1.0000 </r>
       <r>   -6.1115    1.0000 </r>
       <r>   -5.9577    1.0000 </r>
       <r>   -5.8409    1.0000 </r>
       <r>   -5.8407    1.0000 </r>
       <r>   -5.6670    1.0000 </r>
       <r>   -5.6668    1.0000 </r>
       <r>   -5.6613    1.0000 </r>
       <r>   -5.6440    1.0000 </r>
       <r>   -5.6439    1.0000 </r>
       <r>   -5.6329    1.0000 </r>
       <r>   -5.6327    1.0000 </r>
       <r>   -5.2288    1.0000 </r>
       <r>   -5.2284    1.0000 </r>
       <r>   -5.2243    1.0000 </r>
       <r>   -2.5693    0.0000 </r>
       <r>   -2.5692    0.0000 </r>
       <r>   -2.4010    0.0000 </r>
       <r>   -2.4009    0.0000 </r>
       <r>   -1.7566    0.0000 </r>
       <r>   -1.2562    0.0000 </r>
       <r>   -1.1345    0.0000 </r>
       <r>   -1.1343    0.0000 </r>
       <r>   -1.0736    0.0000 </r>
       <r>   -0.9744    0.0000 </r>
       <r>   -0.9713    0.0000 </r>
       <r>   -0.9711    0.0000 </r>
       <r>   -0.9371    0.0000 </r>
       <r>   -0.9371    0.0000 </r>
       <r>   -0.7845    0.0000 </r>
       <r>   -0.7469    0.0000 </r>
       <r>   -0.7467    0.0000 </r>
       <r>   -0.3587    0.0000 </r>
       <r>   -0.3248    0.0000 </r>
       <r>   -0.1766    0.0000 </r>
       <r>   -0.1760    0.0000 </r>
       <r>   -0.1272    0.0000 </r>
       <r>   -0.0021    0.0000 </r>
       <r>   -0.0013    0.0000 </r>
       <r>    0.0159    0.0000 </r>
       <r>    0.0161    0.0000 </r>
       <r>    0.0908    0.0000 </r>
       <r>    0.1944    0.0000 </r>
       <r>    0.1948    0.0000 </r>
       <r>    0.3453    0.0000 </r>
       <r>    0.3510    0.0000 </r>
       <r>    0.3515    0.0000 </r>
       <r>    0.3674    0.0000 </r>
       <r>    0.3677    0.0000 </r>
       <r>    0.4301    0.0000 </r>
       <r>    0.4831    0.0000 </r>
       <r>    0.5016    0.0000 </r>
       <r>    0.5049    0.0000 </r>
       <r>    0.5531    0.0000 </r>
       <r>    0.5541    0.0000 </r>
       <r>    0.6064    0.0000 </r>
       <r>    0.6068    0.0000 </r>
       <r>    0.6288    0.0000 </r>
       <r>    0.6835    0.0000 </r>
       <r>    0.6850    0.0000 </r>
       <r>    0.7240    0.0000 </r>
       <r>    0.7255    0.0000 </r>
       <r>    0.8031    0.0000 </r>
       <r>    0.8457    0.0000 </r>
       <r>    0.8641    0.0000 </r>
       <r>    0.8696    0.0000 </r>
       <r>    0.8699    0.0000 </r>
       <r>    0.8989    0.0000 </r>
       <r>    0.9045    0.0000 </r>
       <r>    0.9210    0.0000 </r>
       <r>    0.9219    0.0000 </r>
       <r>    0.9448    0.0000 </r>
       <r>    0.9884    0.0000 </r>
       <r>    0.9916    0.0000 </r>
       <r>    1.0252    0.0000 </r>
       <r>    1.0314    0.0000 </r>
       <r>    1.0333    0.0000 </r>
       <r>    1.0711    0.0000 </r>
       <r>    1.0714    0.0000 </r>
       <r>    1.1687    0.0000 </r>
       <r>    1.1817    0.0000 </r>
       <r>    1.1818    0.0000 </r>
       <r>    1.1851    0.0000 </r>
       <r>    1.1938    0.0000 </r>
      </set>
      <set comment="kpoint 2">
       <r>  -25.0719    1.0000 </r>
       <r>  -25.0702    1.0000 </r>
       <r>  -22.1598    1.0000 </r>
       <r>  -22.1597    1.0000 </r>
       <r>  -22.1575    1.0000 </r>
       <r>  -22.1574    1.0000 </r>
       <r>  -21.5121    1.0000 </r>
       <r>  -21.4815    1.0000 </r>
       <r>  -21.4811    1.0000 </r>
       <r>  -21.1674    1.0000 </r>
       <r>  -21.1001    1.0000 </r>
       <r>  -21.0998    1.0000 </r>
       <r>  -20.7680    1.0000 </r>
       <r>  -20.7261    1.0000 </r>
       <r>  -20.7259    1.0000 </r>
       <r>  -19.5578    1.0000 </r>
       <r>  -19.5575    1.0000 </r>
       <r>  -19.5228    1.0000 </r>
       <r>  -18.9931    1.0000 </r>
       <r>  -18.9928    1.0000 </r>
       <r>  -18.9587    1.0000 </r>
       <r>  -18.7713    1.0000 </r>
       <r>  -18.7709    1.0000 </r>
       <r>  -18.5542    1.0000 </r>
       <r>  -18.2258    1.0000 </r>
       <r>  -18.2143    1.0000 </r>
       <r>  -18.2142    1.0000 </r>
       <r>  -18.2027    1.0000 </r>
       <r>  -18.2024    1.0000 </r>
       <r>  -18.1992    1.0000 </r>
       <r>  -17.7869    1.0000 </r>
       <r>  -17.7864    1.0000 </r>
       <r>  -17.4799    1.0000 </r>
       <r>  -17.4785    1.0000 </r>
       <r>  -17.4661    1.0000 </r>
       <r>  -17.4491    1.0000 </r>
       <r>  -16.6211    1.0000 </r>
       <r>  -16.6204    1.0000 </r>
       <r>  -16.1728    1.0000 </r>
       <r>  -16.1720    1.0000 </r>
       <r>  -15.8654    1.0000 </r>
       <r>  -15.7130    1.0000 </r>
       <r>  -15.7076    1.0000 </r>
       <r>  -15.6581    1.0000 </r>
       <r>  -14.9878    1.0000 </r>
       <r>  -14.9466    1.0000 </r>
       <r>  -14.9452    1.0000 </r>
       <r>  -14.9156    1.0000 </r>
       <r>  -14.6699    1.0000 </r>
       <r>  -14.6183    1.0000 </r>
       <r>  -14.6180    1.0000 </r>
       <r>  -14.5338    1.0000 </r>
       <r>  -14.5317    1.0000 </r>
       <r>  -14.2612    1.0000 </r>
       <r>  -14.0051    1.0000 </r>
       <r>  -14.0049    1.0000 </r>
       <r>  -13.8903    1.0000 </r>
       <r>  -13.8898    1.0000 </r>
       <r>  -13.4706    1.0000 </r>
       <r>  -13.4118    1.0000 </r>
       <r>  -13.4115    1.0000 </r>
       <r>  -13.0346    1.0000 </r>
       <r>  -12.9908    1.0000 </r>
       <r>  -12.9772    1.0000 </r>
       <r>  -12.8977    1.0000 </r>
       <r>  -12.1556    1.0000 </r>
       <r>  -12.1554    1.0000 </r>
       <r>  -12.1270    1.0000 </r>
       <r>  -12.1267    1.0000 </r>
       <r>  -11.8402    1.0000 </r>
       <r>  -11.5850    1.0000 </r>
       <r>  -11.5846    1.0000 </r>
       <r>  -11.5265    1.0000 </r>
       <r>  -11.4189    1.0000 </r>
       <r>  -11.2344    1.0000 </r>
       <r>  -11.2333    1.0000 </r>
       <r>  -10.9724    1.0000 </r>
       <r>  -10.9695    1.0000 </r>
       <r>  -10.9689    1.0000 </r>
       <r>  -10.9446    1.0000 </r>
       <r>  -10.6890    1.0000 </r>
       <r>  -10.6888    1.0000 </r>
       <r>  -10.6730    1.0000 </r>
       <r>  -10.6729    1.0000 </r>
       <r>  -10.5959    1.0000 </r>
       <r>  -10.5149    1.0000 </r>
       <r>  -10.4670    1.0000 </r>
       <r>  -10.4407    1.0000 </r>
       <r>  -10.4126    1.0000 </r>
       <r>  -10.4099    1.0000 </r>
       <r>  -10.2036    1.0000 </r>
       <r>  -10.2032    1.0000 </r>
       <r>  -10.1550    1.0000 </r>
       <r>  -10.0467    1.0000 </r>
       <r>  -10.0465    1.0000 </r>
       <r>   -9.9977    1.0000 </r>
       <r>   -9.9483    1.0000 </r>
       <r>   -9.9482    1.0000 </r>
       <r>   -9.9249    1.0000 </r>
       <r>   -9.8354    1.0000 </r>
       <r>   -9.8347    1.0000 </r>
       <r>   -9.7306    1.0000 </r>
       <r>   -9.7089    1.0000 </r>
       <r>   -9.7084    1.0000 </r>
       <r>   -9.7044    1.0000 </r>
       <r>   -9.6248    1.0000 </r>
       <r>   -9.6224    1.0000 </r>
       <r>   -9.5763    1.0000 </r>
       <r>   -9.4418    1.0000 </r>
       <r>   -9.4416    1.0000 </r>
       <r>   -9.3428    1.0000 </r>
       <r>   -9.3397    1.0000 </r>
       <r>   -9.3394    1.0000 </r>
       <r>   -9.2684    1.0000 </r>
       <r>   -9.1773    1.0000 </r>
       <r>   -9.1771    1.0000 </r>
       <r>   -9.1436    1.0000 </r>
       <r>   -9.1434    1.0000 </r>
       <r>   -8.7839    1.0000 </r>
       <r>   -8.7826    1.0000 </r>
       <r>   -8.7335    1.0000 </r>
       <r>   -8.6821    1.0000 </r>
       <r>   -8.6680    1.0000 </r>
       <r>   -8.6676    1.0000 </r>
       <r>   -8.6635    1.0000 </r>
       <r>   -8.4709    1.0000 </r>
       <r>   -8.3441    1.0000 </r>
       <r>   -8.3411    1.0000 </r>
       <r>   -8.3120    1.0000 </r>
       <r>   -8.3119    1.0000 </r>
       <r>   -8.1470    1.0000 </r>
       <r>   -8.1461    1.0000 </r>
       <r>   -8.1407    1.0000 </r>
       <r>   -8.1399    1.0000 </r>
       <r>   -8.1391    1.0000 </r>
       <r>   -8.0077    1.0000 </r>
[...]
       <r>   -20.4107     0.0000    30.0000 </r>
       <r>   -20.3143     0.0000    30.0000 </r>
       <r>   -20.2179     0.0000    30.0000 </r>
       <r>   -20.1216     0.0000    30.0000 </r>
       <r>   -20.0252     0.0000    30.0000 </r>
       <r>   -19.9288     0.0000    30.0000 </r>
       <r>   -19.8324     0.0000    30.0000 </r>
       <r>   -19.7360     0.0000    30.0000 </r>
       <r>   -19.6397     0.0000    30.0000 </r>
       <r>   -19.5433    38.2024    33.6819 </r>
       <r>   -19.4469     5.8585    36.0000 </r>
       <r>   -19.3505     0.0000    36.0000 </r>
       <r>   -19.2541     0.0000    36.0000 </r>
       <r>   -19.1578     0.0000    36.0000 </r>
       <r>   -19.0614     0.0000    36.0000 </r>
       <r>   -18.9650    56.1780    41.4144 </r>
       <r>   -18.8686     0.0000    42.0000 </r>
       <r>   -18.7723     9.9444    42.9584 </r>
       <r>   -18.6759    14.3166    45.8469 </r>
       <r>   -18.5795    13.2846    47.4474 </r>
       <r>   -18.4831     3.4539    48.0000 </r>
       <r>   -18.3867     0.0000    48.0000 </r>
       <r>   -18.2904     0.0000    48.0000 </r>
       <r>   -18.1940    91.0971    56.7798 </r>
       <r>   -18.0976     1.7122    60.0000 </r>
       <r>   -18.0012     0.0000    60.0000 </r>
       <r>   -17.9049     0.0000    60.0000 </r>
       <r>   -17.8085     0.0759    60.0073 </r>
       <r>   -17.7121    30.9436    62.9896 </r>
       <r>   -17.6157    11.3623    64.4621 </r>
       <r>   -17.5193     6.4776    65.4916 </r>
       <r>   -17.4230    66.0545    71.9997 </r>
       <r>   -17.3266     0.0000    72.0000 </r>
       <r>   -17.2302     0.0000    72.0000 </r>
       <r>   -17.1338     0.0000    72.0000 </r>
       <r>   -17.0374     0.0000    72.0000 </r>
       <r>   -16.9411     0.0000    72.0000 </r>
       <r>   -16.8447     0.0000    72.0000 </r>
       <r>   -16.7483     0.0000    72.0000 </r>
       <r>   -16.6519     0.0001    72.0000 </r>
       <r>   -16.5556    27.7977    74.6791 </r>
       <r>   -16.4592     7.8352    75.5220 </r>
       <r>   -16.3628     7.0646    76.3809 </r>
       <r>   -16.2664     7.2522    77.2328 </r>
       <r>   -16.1700    19.3547    79.1656 </r>
       <r>   -16.0737     0.0000    80.0000 </r>
       <r>   -15.9773     0.0000    80.0000 </r>
       <r>   -15.8809     0.0799    80.0077 </r>
       <r>   -15.7845    32.5264    83.5045 </r>
       <r>   -15.6881    24.5008    85.9947 </r>
       <r>   -15.5918     3.5306    86.3403 </r>
       <r>   -15.4954     2.7494    86.6320 </r>
       <r>   -15.3990     2.6895    86.9261 </r>
       <r>   -15.3026     7.3228    87.6726 </r>
       <r>   -15.2063     5.3345    88.2811 </r>
       <r>   -15.1099     6.9668    89.0715 </r>
       <r>   -15.0135     3.3044    89.4518 </r>
       <r>   -14.9171    51.6501    94.4785 </r>
       <r>   -14.8207     0.0000    96.0000 </r>
       <r>   -14.7244    11.9602    97.1527 </r>
       <r>   -14.6280    31.7062   100.9903 </r>
       <r>   -14.5316     2.3736   102.2288 </r>
       <r>   -14.4352    17.6479   104.3014 </r>
       <r>   -14.3388     3.8860   104.9415 </r>
       <r>   -14.2425    30.6165   107.9842 </r>
       <r>   -14.1461     0.0000   108.0000 </r>
       <r>   -14.0497     9.1122   108.8782 </r>
       <r>   -13.9533    30.0209   112.4941 </r>
       <r>   -13.8570    31.8814   115.8398 </r>
       <r>   -13.7606     0.0000   116.0000 </r>
       <r>   -13.6642     0.0000   116.0000 </r>
       <r>   -13.5678     0.0000   116.0000 </r>
       <r>   -13.4714     2.0068   116.1934 </r>
       <r>   -13.3751    53.9451   122.0000 </r>
       <r>   -13.2787     0.0000   122.0000 </r>
       <r>   -13.1823     0.0000   122.0000 </r>
       <r>   -13.0859     0.0000   122.0000 </r>
       <r>   -12.9895    34.5008   125.3251 </r>
       <r>   -12.8932    31.6331   129.9165 </r>
       <r>   -12.7968     0.0000   130.0000 </r>
       <r>   -12.7004     0.0000   130.0000 </r>
       <r>   -12.6040     0.0000   130.0000 </r>
       <r>   -12.5077     0.0000   130.0000 </r>
       <r>   -12.4113     0.0000   130.0000 </r>
       <r>   -12.3149     0.0000   130.0000 </r>
       <r>   -12.2185     0.0000   130.0000 </r>
       <r>   -12.1221    75.6440   137.2905 </r>
       <r>   -12.0258     0.0000   138.0000 </r>
       <r>   -11.9294     0.0000   138.0000 </r>
       <r>   -11.8330     2.8078   138.2706 </r>
       <r>   -11.7366     7.4307   139.2164 </r>
       <r>   -11.6402    13.4395   140.8623 </r>
       <r>   -11.5439    48.0918   145.6684 </r>
       <r>   -11.4475     7.5443   147.6625 </r>
       <r>   -11.3511     2.4185   148.0000 </r>
       <r>   -11.2547     0.0071   148.0007 </r>
       <r>   -11.1584    27.2271   150.6248 </r>
       <r>   -11.0620    11.5573   151.8142 </r>
       <r>   -10.9656    39.6134   156.6181 </r>
       <r>   -10.8692    11.7015   160.0000 </r>
       <r>   -10.7728     0.0000   160.0000 </r>
       <r>   -10.6765    52.1664   165.0277 </r>
       <r>   -10.5801     8.6475   168.8334 </r>
       <r>   -10.4837    44.1171   173.9196 </r>
       <r>   -10.3873    29.4650   178.2753 </r>
       <r>   -10.2909     5.7839   178.9244 </r>
       <r>   -10.1946    48.4797   183.7405 </r>
       <r>   -10.0982    19.1282   185.8435 </r>
       <r>   -10.0018    47.5984   190.7881 </r>
       <r>    -9.9054    62.6364   198.6394 </r>
       <r>    -9.8091    18.4170   200.9420 </r>
       <r>    -9.7127    49.7403   206.7939 </r>
       <r>    -9.6163    55.1211   213.8476 </r>
       <r>    -9.5199     4.8649   214.4689 </r>
       <r>    -9.4235    56.0454   219.9685 </r>
       <r>    -9.3272    60.5790   225.8385 </r>
       <r>    -9.2308     7.9364   226.7649 </r>
       <r>    -9.1344    75.0415   234.2330 </r>
       <r>    -9.0380    11.7425   235.8986 </r>
       <r>    -8.9416     9.7150   237.0365 </r>
       <r>    -8.8453     3.6400   237.4842 </r>
       <r>    -8.7489    25.2943   240.0045 </r>
       <r>    -8.6525    99.3280   249.8077 </r>
       <r>    -8.5561     0.0000   250.0000 </r>
       <r>    -8.4598     3.0491   250.2939 </r>
       <r>    -8.3634    11.1087   251.5707 </r>
       <r>    -8.2670    83.5865   260.0000 </r>
       <r>    -8.1706    33.5525   263.2337 </r>
       <r>    -8.0742    49.3953   269.5958 </r>
       <r>    -7.9779    16.9849   272.1722 </r>
       <r>    -7.8815    15.8488   275.8613 </r>
       <r>    -7.7851    38.7319   280.0001 </r>
       <r>    -7.6887    40.7971   283.9321 </r>
       <r>    -7.5923    82.9904   292.0000 </r>
       <r>    -7.4960    40.7485   295.9273 </r>
       <r>    -7.3996     0.0000   298.0000 </r>
       <r>    -7.3032     0.0000   298.0000 </r>
       <r>    -7.2068     0.0000   298.0000 </r>
       <r>    -7.1105     0.0000   298.0000 </r>
       <r>    -7.0141     0.0000   298.0000 </r>
       <r>    -6.9177     0.0000   298.0000 </r>
       <r>    -6.8213     0.0000   298.0000 </r>
       <r>    -6.7249     0.0000   298.0000 </r>
       <r>    -6.6286     0.0000   298.0000 </r>
       <r>    -6.5322     0.0000   298.0000 </r>
       <r>    -6.4358    20.0902   299.9363 </r>
       <r>    -6.3394    34.9127   304.0000 </r>
       <r>    -6.2430     0.0000   304.0000 </r>
       <r>    -6.1467     5.1762   304.4989 </r>
       <r>    -6.0503    81.2379   316.0000 </r>
       <r>    -5.9539     2.5890   316.2495 </r>
       <r>    -5.8575    27.6535   319.2989 </r>
       <r>    -5.7612    10.2771   322.0000 </r>
       <r>    -5.6648    32.2901   325.1121 </r>
       <r>    -5.5684    82.9570   336.0000 </r>
       <r>    -5.4720     0.0000   336.0000 </r>
       <r>    -5.3756     0.0000   336.0000 </r>
       <r>    -5.2793     0.0000   336.0000 </r>
       <r>    -5.1829    62.2545   342.0000 </r>
       <r>    -5.0865     0.0000   342.0000 </r>
       <r>    -4.9901     0.0000   342.0000 </r>
       <r>    -4.8937     0.0000   342.0000 </r>
       <r>    -4.7974     0.0000   342.0000 </r>
       <r>    -4.7010     0.0000   342.0000 </r>
       <r>    -4.6046     0.0000   342.0000 </r>
       <r>    -4.5082     0.0000   342.0000 </r>
       <r>    -4.4119     0.0000   342.0000 </r>
       <r>    -4.3155     0.0000   342.0000 </r>
       <r>    -4.2191     0.0000   342.0000 </r>
       <r>    -4.1227     0.0000   342.0000 </r>
       <r>    -4.0263     0.0000   342.0000 </r>
       <r>    -3.9300     0.0000   342.0000 </r>
       <r>    -3.8336     0.0000   342.0000 </r>
       <r>    -3.7372     0.0000   342.0000 </r>
       <r>    -3.6408     0.0000   342.0000 </r>
       <r>    -3.5445     0.0000   342.0000 </r>
       <r>    -3.4481     0.0000   342.0000 </r>
       <r>    -3.3517     0.0000   342.0000 </r>
       <r>    -3.2553     0.0000   342.0000 </r>
       <r>    -3.1589     0.0000   342.0000 </r>
       <r>    -3.0626     0.0000   342.0000 </r>
       <r>    -2.9662     0.0000   342.0000 </r>
       <r>    -2.8698     0.0000   342.0000 </r>
       <r>    -2.7734     0.0000   342.0000 </r>
       <r>    -2.6770     0.0000   342.0000 </r>
       <r>    -2.5807     1.2391   342.1194 </r>
       <r>    -2.4843    20.2449   346.2853 </r>
       <r>    -2.3879    31.7640   349.9286 </r>
       <r>    -2.2915     0.0000   350.0000 </r>
       <r>    -2.1952     0.0000   350.0000 </r>
       <r>    -2.0988     0.0000   350.0000 </r>
       <r>    -2.0024     0.0000   350.0000 </r>
       <r>    -1.9060     0.0000   350.0000 </r>
       <r>    -1.8096     0.0000   350.0000 </r>
       <r>    -1.7133     5.9752   350.5759 </r>
       <r>    -1.6169     7.1096   351.3852 </r>
       <r>    -1.5205     7.4615   352.3195 </r>
       <r>    -1.4241     7.2773   353.1682 </r>
       <r>    -1.3277     3.1577   353.5378 </r>
       <r>    -1.2314     4.1476   354.0000 </r>
       <r>    -1.1350     3.5229   354.3395 </r>
       <r>    -1.0386    50.6233   360.5143 </r>
       <r>    -0.9422    50.8740   366.0700 </r>
       <r>    -0.8459    22.6759   368.6861 </r>
       <r>    -0.7495    51.7986   373.7926 </r>
       <r>    -0.6531    10.4323   375.6726 </r>
       <r>    -0.5567     7.3056   376.5043 </r>
       <r>    -0.4603     5.5821   377.2722 </r>
       <r>    -0.3640     5.3401   377.8483 </r>
       <r>    -0.2676    25.6157   380.4688 </r>
       <r>    -0.1712    26.9177   383.6612 </r>
       <r>    -0.0748     6.3423   384.6113 </r>
       <r>     0.0216    57.0975   390.3031 </r>
       <r>     0.1179    33.5224   395.6648 </r>
       <r>     0.2143    37.0975   399.5764 </r>
       <r>     0.3107    24.5230   403.1638 </r>
       <r>     0.4071    52.1317   408.4581 </r>
       <r>     0.5034    63.0100   414.7401 </r>
       <r>     0.5998    61.8629   422.3974 </r>
       <r>     0.6962    56.8970   430.0188 </r>
       <r>     0.7926    65.0148   438.1021 </r>
       <r>     0.8890    81.6487   448.0064 </r>
       <r>     0.9853    82.9116   457.8931 </r>
       <r>     1.0817    92.8304   468.2827 </r>
       <r>     1.1781    80.2942   477.3087 </r>
       <r>     1.2745    10.3491   480.0000 </r>
       <r>     1.3709     0.0000   480.0000 </r>
       <r>     1.4672     0.0000   480.0000 </r>
       <r>     1.5636     0.0000   480.0000 </r>
       <r>     1.6600     0.0000   480.0000 </r>
       <r>     1.7564     0.0000   480.0000 </r>
       <r>     1.8527     0.0000   480.0000 </r>
       <r>     1.9491     0.0000   480.0000 </r>
       <r>     2.0455     0.0000   480.0000 </r>
       <r>     2.1419     0.0000   480.0000 </r>
       <r>     2.2383     0.0000   480.0000 </r>
       <r>     2.3346     0.0000   480.0000 </r>
       <r>     2.4310     0.0000   480.0000 </r>
       <r>     2.5274     0.0000   480.0000 </r>
      </set>
     </set>
    </array>
   </total>
  </dos>
 </calculation>
 <structure name="finalpos" >
  <crystal>
   <varray name="basis" >
    <v>      29.49298422      -0.00000001       0.00000000 </v>
    <v>     -14.74649210      25.54167357       0.00000000 </v>
    <v>       0.00000000       0.00000000      20.00000000 </v>
   </varray>
   <i name="volume">  15066.00350986 </i>
   <varray name="rec_basis" >
    <v>       0.03390637       0.01957585       0.00000000 </v>
    <v>       0.00000000       0.03915170       0.00000000 </v>
    <v>       0.00000000       0.00000000       0.05000000 </v>
   </varray>
  </crystal>
  <varray name="positions" >
   <v>       0.38715889       0.69322671       0.50194917 </v>
   <v>       0.30606782       0.61284111       0.50194917 </v>
   <v>       0.30677329       0.69393218       0.50194917 </v>
   <v>       0.61283679       0.30682504       0.50388644 </v>
   <v>       0.69398826       0.38716321       0.50388644 </v>
   <v>       0.69317496       0.30601174       0.50388644 </v>
   <v>       0.02920254       0.49758517       0.55461954 </v>
   <v>       0.02531141       0.53106318       0.44517484 </v>
   <v>       0.35939903       0.71812288       0.50192853 </v>
   <v>       0.35872385       0.64060097       0.50192853 </v>
   <v>       0.28187712       0.64127615       0.50192853 </v>
   <v>       0.38730636       0.61131429       0.50143489 </v>
   <v>       0.44163905       0.63726268       0.51227643 </v>
   <v>       0.46839281       0.60955387       0.51155559 </v>
   <v>       0.44205404       0.55535878       0.49888316 </v>
   <v>       0.38765846       0.52970558       0.48807729 </v>
   <v>       0.36058594       0.55706216       0.48981373 </v>
   <v>       0.38868571       0.77599208       0.50143489 </v>
   <v>       0.44293784       0.80352379       0.48981373 </v>
   <v>       0.47029442       0.85795288       0.48807729 </v>
   <v>       0.44464122       0.88669526       0.49888316 </v>
   <v>       0.39044613       0.85883894       0.51155559 </v>
   <v>       0.36273732       0.80437637       0.51227643 </v>
   <v>       0.22400792       0.61269364       0.50143489 </v>
   <v>       0.19647621       0.63941406       0.48981373 </v>
   <v>       0.14204712       0.61234154       0.48807729 </v>
   <v>       0.11330474       0.55794596       0.49888316 </v>
   <v>       0.14116106       0.53160719       0.51155559 </v>
   <v>       0.19562363       0.55836095       0.51227643 </v>
   <v>       0.64055277       0.28187499       0.50390497 </v>
   <v>       0.64132222       0.35944723       0.50390497 </v>
   <v>       0.71812501       0.35867778       0.50390497 </v>
   <v>       0.61282685       0.38881946       0.50437892 </v>
   <v>       0.55849485       0.36292916       0.49362596 </v>
   <v>       0.53183033       0.39072191       0.49419640 </v>
   <v>       0.55827044       0.44495703       0.50659394 </v>
   <v>       0.61267279       0.47055740       0.51736862 </v>
   <v>       0.63965394       0.44310366       0.51580450 </v>
   <v>       0.61118054       0.22400739       0.50437892 </v>
   <v>       0.55689634       0.19655029       0.51580450 </v>
   <v>       0.52944260       0.14211539       0.51736862 </v>
   <v>       0.55504297       0.11331341       0.50659394 </v>
   <v>       0.60927809       0.14110841       0.49419640 </v>
   <v>       0.63707084       0.19556568       0.49362596 </v>
   <v>       0.77599261       0.38717315       0.50437892 </v>
   <v>       0.80344971       0.36034606       0.51580450 </v>
   <v>       0.85788461       0.38732721       0.51736862 </v>
   <v>       0.88668659       0.44172956       0.50659394 </v>
   <v>       0.85889159       0.46816967       0.49419640 </v>
   <v>       0.80443432       0.44150515       0.49362596 </v>
   <v>       0.52918700       0.47392777       0.50642675 </v>
   <v>       0.53145833       0.50614154       0.56015997 </v>
   <v>       0.50241483       0.53161737       0.55461954 </v>
   <v>       0.56209435       0.51246025       0.62328011 </v>
   <v>       0.52607223       0.05525923       0.50642675 </v>
   <v>       0.49385846       0.02531679       0.56015997 </v>
   <v>       0.46838263       0.97079746       0.55461954 </v>
   <v>       0.48753975       0.04963410       0.62328011 </v>
   <v>       0.94474077       0.47081300       0.50642675 </v>
   <v>       0.97468321       0.46854167       0.56015997 </v>
   <v>       0.95036590       0.43790565       0.62328011 </v>
   <v>       0.47120149       0.52645693       0.49891809 </v>
   <v>       0.46893682       0.49424823       0.44517484 </v>
   <v>       0.49799625       0.46878420       0.45070822 </v>
   <v>       0.43825714       0.48787885       0.38207386 </v>
   <v>       0.47354307       0.94474456       0.49891809 </v>
   <v>       0.50575177       0.97468859       0.44517484 </v>
   <v>       0.53121580       0.02921205       0.45070822 </v>
   <v>       0.51212115       0.95037830       0.38207386 </v>
   <v>       0.05525544       0.52879851       0.49891809 </v>
   <v>       0.97078795       0.50200375       0.45070822 </v>
   <v>       0.04962170       0.56174286       0.38207386 </v>
   <v>       0.02231085       0.54484776       0.33994069 </v>
   <v>       0.05941900       0.60285342       0.38684946 </v>
   <v>       0.51243978       0.87875570       0.47935293 </v>
   <v>       0.46304910       0.78141814       0.48210814 </v>
   <v>       0.36992774       0.88054122       0.51994082 </v>
   <v>       0.32064867       0.78296082       0.52124861 </v>
   <v>       0.21858186       0.68163096       0.48210814 </v>
   <v>       0.12124430       0.63368407       0.47935293 </v>
   <v>       0.21703918       0.53768785       0.52124861 </v>
   <v>       0.11945878       0.48938652       0.51994082 </v>
   <v>       0.31836904       0.53695090       0.48210814 </v>
   <v>       0.36631593       0.48756022       0.47935293 </v>
   <v>       0.51061348       0.63007226       0.51994082 </v>
   <v>       0.46231215       0.67935133       0.52124861 </v>
   <v>       0.48726740       0.12134824       0.52587943 </v>
   <v>       0.53680923       0.21868404       0.52350329 </v>
   <v>       0.62974808       0.11935074       0.48587930 </v>
   <v>       0.67918454       0.21694450       0.48488568 </v>
   <v>       0.78131596       0.31812518       0.52350329 </v>
   <v>       0.87865176       0.36591916       0.52587943 </v>
   <v>       0.78305550       0.46224004       0.48488568 </v>
   <v>       0.88064926       0.51039734       0.48587930 </v>
   <v>       0.68187482       0.46319077       0.52350329 </v>
   <v>       0.63408084       0.51273260       0.52587943 </v>
   <v>       0.48960266       0.37025192       0.48587930 </v>
   <v>       0.53775996       0.32081546       0.48488568 </v>
   <v>       0.50286045       0.55570994       0.59641410 </v>
   <v>       0.56254489       0.47649106       0.63610775 </v>
   <v>       0.54514394       0.52279475       0.66542622 </v>
   <v>       0.60319713       0.54381186       0.61858213 </v>
   <v>       0.44429006       0.94715051       0.59641410 </v>
   <v>       0.52350894       0.08605382       0.63610775 </v>
   <v>       0.47720525       0.02234919       0.66542622 </v>
   <v>       0.45618814       0.05938526       0.61858213 </v>
   <v>       0.05284949       0.49713955       0.59641410 </v>
   <v>       0.91394618       0.43745511       0.63610775 </v>
   <v>       0.97765081       0.45485606       0.66542622 </v>
   <v>       0.94061474       0.39680287       0.61858213 </v>
   <v>       0.49756430       0.44470429       0.40890263 </v>
   <v>       0.43783559       0.52385586       0.36918234 </v>
   <v>       0.39714658       0.45656558       0.38684946 </v>
   <v>       0.45515224       0.47746309       0.33994069 </v>
   <v>       0.55529571       0.05286001       0.40890263 </v>
   <v>       0.47614414       0.91397973       0.36918234 </v>
   <v>       0.54343442       0.94058100       0.38684946 </v>
   <v>       0.52253691       0.97768915       0.33994069 </v>
   <v>       0.94713999       0.50243570       0.40890263 </v>
   <v>       0.08602027       0.56216441       0.36918234 </v>
  </varray>
 </structure>
</modeling>
