<?xml version="1.0" encoding="ISO-8859-1"?>
<modeling>
 <generator>
  <i name="program" type="string">vasp </i>
  <i name="version" type="string">5.4.4.18Apr17-6-g9f103f2a35  </i>
  <i name="subversion" type="string">(build Jun 07 2020 16:50:00) complex            parallel </i>
  <i name="platform" type="string">LinuxIFC </i>
  <i name="date" type="string">2023 02 27 </i>
  <i name="time" type="string">13:03:26 </i>
 </generator>
 <incar>
  <i type="string" name="SYSTEM">Simulation for cell shape cell volume r</i>
  <i type="int" name="ISTART">     1</i>
  <i type="string" name="PREC">high</i>
  <i type="string" name="ALGO">48</i>
  <i type="int" name="ICHARG">    11</i>
  <i type="int" name="NELM">   200</i>
  <i type="int" name="IBRION">    -1</i>
  <i name="EDIFF">      0.00001000</i>
  <i name="EDIFFG">     -0.01000000</i>
  <i type="int" name="NSW">     0</i>
  <i type="int" name="ISIF">     2</i>
  <i name="ENCUT">    500.00000000</i>
  <i name="POTIM">      0.30000000</i>
  <i type="string" name="LREAL">A</i>
  <i type="int" name="ISMEAR">     0</i>
  <i name="SIGMA">      0.01000000</i>
  <i type="int" name="NWRITE">     0</i>
  <i type="logical" name="LWAVE"> F  </i>
  <i type="logical" name="LCHARG"> F  </i>
  <v type="int" name="KPOINT_BSE">    -1     0     0     0</v>
  <i type="int" name="NELM">   200</i>
  <i type="string" name="GGA">PE</i>
 </incar>
 <structure name="primitive_cell" >
  <crystal>
   <varray name="basis" >
    <v>      29.79653526      -0.00220631       0.00000000 </v>
    <v>      14.89635691      25.80565964       0.00000000 </v>
    <v>       0.00000000       0.00000000      20.00000000 </v>
   </varray>
   <i name="volume">  15379.04226485 </i>
   <varray name="rec_basis" >
    <v>       0.03355951      -0.01937228       0.00000000 </v>
    <v>       0.00000287       0.03874953       0.00000000 </v>
    <v>       0.00000000       0.00000000       0.05000000 </v>
   </varray>
  </crystal>
  <varray name="positions" >
   <v>      -0.47049202      -0.47049202      -0.49592276 </v>
   <v>      -0.48265550      -0.48265550       0.44502484 </v>
   <v>      -0.48514675      -0.48514675      -0.43594645 </v>
   <v>      -0.44171405      -0.44171405      -0.49539838 </v>
   <v>       0.49128298       0.49128298       0.44559489 </v>
   <v>       0.48878590       0.48878590      -0.43537210 </v>
   <v>      -0.47226669      -0.47226669      -0.37231519 </v>
   <v>      -0.38749307      -0.46833563      -0.49512480 </v>
   <v>      -0.46833563      -0.38749307      -0.49512480 </v>
   <v>      -0.36601929       0.48938958      -0.49520633 </v>
   <v>       0.48938958      -0.36601929      -0.49520633 </v>
   <v>       0.47662720       0.47662720      -0.49443374 </v>
   <v>      -0.46144209      -0.46144209      -0.32103628 </v>
   <v>       0.47846836       0.47846836       0.38188353 </v>
   <v>      -0.36069931      -0.44118946      -0.49490542 </v>
   <v>      -0.44118946      -0.36069931      -0.49490542 </v>
   <v>       0.44784900       0.44784900      -0.49500664 </v>
   <v>      -0.38663297      -0.38663297      -0.49488225 </v>
   <v>      -0.31854248      -0.46367373      -0.49474587 </v>
   <v>      -0.46367373      -0.31854248      -0.49474587 </v>
   <v>       0.46780785       0.46780785       0.33037855 </v>
   <v>       0.37215477      -0.48325619      -0.49518003 </v>
   <v>      -0.48325619       0.37215477      -0.49518003 </v>
   <v>       0.39362833       0.47447015      -0.49530329 </v>
   <v>       0.47447015       0.39362833      -0.49530329 </v>
   <v>      -0.35774910      -0.35774910      -0.49487365 </v>
   <v>      -0.28234387      -0.42607813      -0.49482853 </v>
   <v>      -0.42607813      -0.28234387      -0.49482853 </v>
   <v>       0.36683492       0.44732440      -0.49557112 </v>
   <v>       0.44732440       0.36683492      -0.49557112 </v>
   <v>      -0.30338584      -0.38399657      -0.49489041 </v>
   <v>      -0.38399657      -0.30338584      -0.49489041 </v>
   <v>       0.39277061       0.39277061      -0.49562519 </v>
   <v>       0.32467840       0.46980383      -0.49574167 </v>
   <v>       0.46980383       0.32467840      -0.49574167 </v>
   <v>      -0.20854196      -0.46365800      -0.49496056 </v>
   <v>      -0.46365800      -0.20854196      -0.49496056 </v>
   <v>      -0.27527262      -0.35774096      -0.49490319 </v>
   <v>      -0.35774096      -0.27527262      -0.49490319 </v>
   <v>       0.36388956       0.36388956      -0.49568433 </v>
   <v>      -0.30338098      -0.30338098      -0.49492301 </v>
   <v>      -0.18888209      -0.44115779      -0.49498314 </v>
   <v>      -0.44115779      -0.18888209      -0.49498314 </v>
   <v>       0.28849537       0.43221435      -0.49567665 </v>
   <v>       0.43221435       0.28849537      -0.49567665 </v>
   <v>      -0.21751622      -0.38660455      -0.49489403 </v>
   <v>      -0.38660455      -0.21751622      -0.49489403 </v>
   <v>       0.30952985       0.39013352      -0.49566812 </v>
   <v>       0.39013352       0.30952985      -0.49566812 </v>
   <v>      -0.28233771      -0.28233771      -0.49487676 </v>
   <v>      -0.13494684      -0.46827773      -0.49513702 </v>
   <v>      -0.46827773      -0.13494684      -0.49513702 </v>
   <v>      -0.11414233       0.48944929      -0.49528769 </v>
   <v>       0.48944929      -0.11414233      -0.49528769 </v>
   <v>       0.21476873       0.46979807      -0.49543139 </v>
   <v>       0.46979807       0.21476873      -0.49543139 </v>
   <v>      -0.18891270      -0.36064807      -0.49479570 </v>
   <v>      -0.36064807      -0.18891270      -0.49479570 </v>
   <v>       0.28141112       0.36388201      -0.49563409 </v>
   <v>       0.36388201       0.28141112      -0.49563409 </v>
   <v>      -0.20859068      -0.31849329      -0.49466420 </v>
   <v>      -0.31849329      -0.20859068      -0.49466420 </v>
   <v>      -0.10736402      -0.44163287      -0.49523631 </v>
   <v>      -0.44163287      -0.10736402      -0.49523631 </v>
   <v>       0.30951773       0.30951773      -0.49558574 </v>
   <v>       0.19506625       0.44733803      -0.49541827 </v>
   <v>       0.44733803       0.19506625      -0.49541827 </v>
   <v>      -0.13498166      -0.38741279      -0.49489654 </v>
   <v>      -0.38741279      -0.13498166      -0.49489654 </v>
   <v>       0.22365059       0.39278294      -0.49559226 </v>
   <v>       0.39278294       0.22365059      -0.49559226 </v>
   <v>       0.12036893      -0.48321839      -0.49493538 </v>
   <v>      -0.48321839       0.12036893      -0.49493538 </v>
   <v>       0.28847318       0.28847318      -0.49550516 </v>
   <v>      -0.11421127      -0.36590496      -0.49488521 </v>
   <v>      -0.36590496      -0.11421127      -0.49488521 </v>
   <v>       0.14113424       0.47451086      -0.49518914 </v>
   <v>       0.47451086       0.14113424      -0.49518914 </v>
   <v>      -0.04981036      -0.47036736      -0.49581176 </v>
   <v>      -0.47036736      -0.04981036      -0.49581176 </v>
   <v>      -0.06765542      -0.46019921      -0.32087370 </v>
   <v>      -0.46019921      -0.06765542      -0.32087370 </v>
   <v>      -0.04611262      -0.47132110      -0.37221781 </v>
   <v>      -0.47132110      -0.04611262      -0.37221781 </v>
   <v>       0.19499756       0.36687562      -0.49570995 </v>
   <v>       0.36687562       0.19499756      -0.49570995 </v>
   <v>      -0.02556037      -0.48284496       0.44509290 </v>
   <v>      -0.48284496      -0.02556037       0.44509290 </v>
   <v>      -0.02043773      -0.48461744      -0.43589290 </v>
   <v>      -0.48461744      -0.02043773      -0.43589290 </v>
   <v>       0.21464396       0.32472003      -0.49592152 </v>
   <v>       0.32472003       0.21464396      -0.49592152 </v>
   <v>       0.11349854       0.44792003      -0.49511011 </v>
   <v>       0.44792003       0.11349854      -0.49511011 </v>
   <v>       0.14106065       0.39369985      -0.49554024 </v>
   <v>       0.39369985       0.14106065      -0.49554024 </v>
   <v>       0.02657054       0.49111612       0.44557524 </v>
   <v>       0.49111612       0.02657054       0.44557524 </v>
   <v>       0.03169350       0.48929507      -0.43539822 </v>
   <v>       0.48929507       0.03169350      -0.43539822 </v>
   <v>       0.05594464       0.47675144      -0.49450479 </v>
   <v>       0.47675144       0.05594464      -0.49450479 </v>
   <v>       0.07342934       0.46741053       0.33030456 </v>
   <v>       0.46741053       0.07342934       0.33030456 </v>
   <v>       0.05214591       0.47812428       0.38183305 </v>
   <v>       0.47812428       0.05214591       0.38183305 </v>
   <v>       0.12024039       0.37224087      -0.49552484 </v>
   <v>       0.37224087       0.12024039      -0.49552484 </v>
  </varray>
 </structure>
 <varray name="primitive_index" >
  <v type="int" >        1 </v>
  <v type="int" >       97 </v>
  <v type="int" >        2 </v>
  <v type="int" >       19 </v>
  <v type="int" >       65 </v>
  <v type="int" >      103 </v>
  <v type="int" >        3 </v>
  <v type="int" >       18 </v>
  <v type="int" >       20 </v>
  <v type="int" >       67 </v>
  <v type="int" >       69 </v>
  <v type="int" >       60 </v>
  <v type="int" >       98 </v>
  <v type="int" >       66 </v>
  <v type="int" >       17 </v>
  <v type="int" >       21 </v>
  <v type="int" >       43 </v>
  <v type="int" >       16 </v>
  <v type="int" >       68 </v>
  <v type="int" >       70 </v>
  <v type="int" >      108 </v>
  <v type="int" >       82 </v>
  <v type="int" >       84 </v>
  <v type="int" >       42 </v>
  <v type="int" >       44 </v>
  <v type="int" >        4 </v>
  <v type="int" >       79 </v>
  <v type="int" >       80 </v>
  <v type="int" >       41 </v>
  <v type="int" >       45 </v>
  <v type="int" >        5 </v>
  <v type="int" >        9 </v>
  <v type="int" >       40 </v>
  <v type="int" >       83 </v>
  <v type="int" >       85 </v>
  <v type="int" >       78 </v>
  <v type="int" >       71 </v>
  <v type="int" >        6 </v>
  <v type="int" >        8 </v>
  <v type="int" >       28 </v>
  <v type="int" >        7 </v>
  <v type="int" >       11 </v>
  <v type="int" >       23 </v>
  <v type="int" >       94 </v>
  <v type="int" >       95 </v>
  <v type="int" >       10 </v>
  <v type="int" >       22 </v>
  <v type="int" >       29 </v>
  <v type="int" >       33 </v>
  <v type="int" >       81 </v>
  <v type="int" >       12 </v>
  <v type="int" >       24 </v>
  <v type="int" >       77 </v>
  <v type="int" >       72 </v>
  <v type="int" >       93 </v>
  <v type="int" >       86 </v>
  <v type="int" >       15 </v>
  <v type="int" >       27 </v>
  <v type="int" >       30 </v>
  <v type="int" >       32 </v>
  <v type="int" >       75 </v>
  <v type="int" >       73 </v>
  <v type="int" >       13 </v>
  <v type="int" >       25 </v>
  <v type="int" >       31 </v>
  <v type="int" >       35 </v>
  <v type="int" >       47 </v>
  <v type="int" >       14 </v>
  <v type="int" >       26 </v>
  <v type="int" >       34 </v>
  <v type="int" >       46 </v>
  <v type="int" >       92 </v>
  <v type="int" >       87 </v>
  <v type="int" >       96 </v>
  <v type="int" >       76 </v>
  <v type="int" >       74 </v>
  <v type="int" >       36 </v>
  <v type="int" >       48 </v>
  <v type="int" >       52 </v>
  <v type="int" >       56 </v>
  <v type="int" >      100 </v>
  <v type="int" >      102 </v>
  <v type="int" >       55 </v>
  <v type="int" >       59 </v>
  <v type="int" >       39 </v>
  <v type="int" >       51 </v>
  <v type="int" >      104 </v>
  <v type="int" >      106 </v>
  <v type="int" >       54 </v>
  <v type="int" >       58 </v>
  <v type="int" >       90 </v>
  <v type="int" >       88 </v>
  <v type="int" >       37 </v>
  <v type="int" >       49 </v>
  <v type="int" >       38 </v>
  <v type="int" >       50 </v>
  <v type="int" >       61 </v>
  <v type="int" >       63 </v>
  <v type="int" >       99 </v>
  <v type="int" >      101 </v>
  <v type="int" >       53 </v>
  <v type="int" >       57 </v>
  <v type="int" >      105 </v>
  <v type="int" >      107 </v>
  <v type="int" >       62 </v>
  <v type="int" >       64 </v>
  <v type="int" >       91 </v>
  <v type="int" >       89 </v>
 </varray>
 <kpoints>
  <generation param="listgenerated">
   <i name="divisions" type="int">      20 </i>
   <v>       0.00000000       0.00000000       0.00000000 </v>
   <v>       0.50000000       0.50000000       0.00000000 </v>
   <v>       0.33333333       0.66666667       0.00000000 </v>
   <v>       0.00000000       0.00000000       0.00000000 </v>
  </generation>
  <varray name="kpointlist" >
   <v>       0.00000000       0.00000000       0.00000000 </v>
   <v>       0.02631579       0.02631579       0.00000000 </v>
   <v>       0.05263158       0.05263158       0.00000000 </v>
   <v>       0.07894737       0.07894737       0.00000000 </v>
   <v>       0.10526316       0.10526316       0.00000000 </v>
   <v>       0.13157895       0.13157895       0.00000000 </v>
   <v>       0.15789474       0.15789474       0.00000000 </v>
   <v>       0.18421053       0.18421053       0.00000000 </v>
   <v>       0.21052632       0.21052632       0.00000000 </v>
   <v>       0.23684211       0.23684211       0.00000000 </v>
   <v>       0.26315789       0.26315789       0.00000000 </v>
   <v>       0.28947368       0.28947368       0.00000000 </v>
   <v>       0.31578947       0.31578947       0.00000000 </v>
   <v>       0.34210526       0.34210526       0.00000000 </v>
   <v>       0.36842105       0.36842105       0.00000000 </v>
   <v>       0.39473684       0.39473684       0.00000000 </v>
   <v>       0.42105263       0.42105263       0.00000000 </v>
   <v>       0.44736842       0.44736842       0.00000000 </v>
   <v>       0.47368421       0.47368421       0.00000000 </v>
   <v>       0.50000000       0.50000000       0.00000000 </v>
   <v>       0.50000000       0.50000000       0.00000000 </v>
   <v>       0.49122807       0.50877193       0.00000000 </v>
   <v>       0.48245614       0.51754386       0.00000000 </v>
   <v>       0.47368421       0.52631579       0.00000000 </v>
   <v>       0.46491228       0.53508772       0.00000000 </v>
   <v>       0.45614035       0.54385965       0.00000000 </v>
   <v>       0.44736842       0.55263158       0.00000000 </v>
   <v>       0.43859649       0.56140351       0.00000000 </v>
   <v>       0.42982456       0.57017544       0.00000000 </v>
   <v>       0.42105263       0.57894737       0.00000000 </v>
   <v>       0.41228070       0.58771930       0.00000000 </v>
   <v>       0.40350877       0.59649123       0.00000000 </v>
   <v>       0.39473684       0.60526316       0.00000000 </v>
   <v>       0.38596491       0.61403509       0.00000000 </v>
   <v>       0.37719298       0.62280702       0.00000000 </v>
   <v>       0.36842105       0.63157895       0.00000000 </v>
   <v>       0.35964912       0.64035088       0.00000000 </v>
   <v>       0.35087719       0.64912281       0.00000000 </v>
   <v>       0.34210526       0.65789474       0.00000000 </v>
   <v>       0.33333333       0.66666667       0.00000000 </v>
   <v>       0.33333333       0.66666667       0.00000000 </v>
   <v>       0.31578947       0.63157895       0.00000000 </v>
   <v>       0.29824561       0.59649123       0.00000000 </v>
   <v>       0.28070175       0.56140351       0.00000000 </v>
   <v>       0.26315789       0.52631579       0.00000000 </v>
   <v>       0.24561404       0.49122807       0.00000000 </v>
   <v>       0.22807018       0.45614035       0.00000000 </v>
   <v>       0.21052632       0.42105263       0.00000000 </v>
   <v>       0.19298246       0.38596491       0.00000000 </v>
   <v>       0.17543860       0.35087719       0.00000000 </v>
   <v>       0.15789474       0.31578947       0.00000000 </v>
   <v>       0.14035088       0.28070175       0.00000000 </v>
   <v>       0.12280702       0.24561404       0.00000000 </v>
   <v>       0.10526316       0.21052632       0.00000000 </v>
   <v>       0.08771930       0.17543860       0.00000000 </v>
   <v>       0.07017544       0.14035088       0.00000000 </v>
   <v>       0.05263158       0.10526316       0.00000000 </v>
   <v>       0.03508772       0.07017544       0.00000000 </v>
   <v>       0.01754386       0.03508772       0.00000000 </v>
   <v>       0.00000000       0.00000000       0.00000000 </v>
  </varray>
  <varray name="weights" >
   <v>       0.01666667 </v>
   <v>       0.01666667 </v>
   <v>       0.01666667 </v>
   <v>       0.01666667 </v>
   <v>       0.01666667 </v>
   <v>       0.01666667 </v>
   <v>       0.01666667 </v>
   <v>       0.01666667 </v>
   <v>       0.01666667 </v>
   <v>       0.01666667 </v>
   <v>       0.01666667 </v>
   <v>       0.01666667 </v>
   <v>       0.01666667 </v>
   <v>       0.01666667 </v>
   <v>       0.01666667 </v>
   <v>       0.01666667 </v>
   <v>       0.01666667 </v>
   <v>       0.01666667 </v>
   <v>       0.01666667 </v>
   <v>       0.01666667 </v>
   <v>       0.01666667 </v>
   <v>       0.01666667 </v>
   <v>       0.01666667 </v>
   <v>       0.01666667 </v>
   <v>       0.01666667 </v>
   <v>       0.01666667 </v>
   <v>       0.01666667 </v>
   <v>       0.01666667 </v>
   <v>       0.01666667 </v>
   <v>       0.01666667 </v>
   <v>       0.01666667 </v>
   <v>       0.01666667 </v>
   <v>       0.01666667 </v>
   <v>       0.01666667 </v>
   <v>       0.01666667 </v>
   <v>       0.01666667 </v>
   <v>       0.01666667 </v>
   <v>       0.01666667 </v>
   <v>       0.01666667 </v>
   <v>       0.01666667 </v>
   <v>       0.01666667 </v>
   <v>       0.01666667 </v>
   <v>       0.01666667 </v>
   <v>       0.01666667 </v>
   <v>       0.01666667 </v>
   <v>       0.01666667 </v>
   <v>       0.01666667 </v>
   <v>       0.01666667 </v>
   <v>       0.01666667 </v>
   <v>       0.01666667 </v>
   <v>       0.01666667 </v>
   <v>       0.01666667 </v>
   <v>       0.01666667 </v>
   <v>       0.01666667 </v>
   <v>       0.01666667 </v>
   <v>       0.01666667 </v>
   <v>       0.01666667 </v>
   <v>       0.01666667 </v>
   <v>       0.01666667 </v>
   <v>       0.01666667 </v>
  </varray>
 </kpoints>
 <parameters>
  <separator name="general" >
   <i type="string" name="SYSTEM">Simulation for cell shape cell volume r</i>
   <i type="logical" name="LCOMPAT"> F  </i>
  </separator>
  <separator name="electronic" >
   <i type="string" name="PREC">high</i>
   <i name="ENMAX">    500.00000000</i>
   <i name="ENAUG">    644.87300000</i>
   <i name="EDIFF">      0.00001000</i>
   <i type="int" name="IALGO">    38</i>
   <i type="int" name="IWAVPR">    10</i>
   <i type="int" name="NBANDS">   240</i>
   <i name="NELECT">    354.00000000</i>
   <i type="int" name="TURBO">     0</i>
   <i type="int" name="IRESTART">     0</i>
   <i type="int" name="NREBOOT">     0</i>
   <i type="int" name="NMIN">     0</i>
   <i name="EREF">      0.00000000</i>
   <separator name="electronic smearing" >
    <i type="int" name="ISMEAR">     0</i>
    <i name="SIGMA">      0.01000000</i>
    <i name="KSPACING">      0.50000000</i>
    <i type="logical" name="KGAMMA"> T  </i>
   </separator>
   <separator name="electronic projectors" >
    <i type="logical" name="LREAL"> T  </i>
    <v name="ROPT">     -0.00040000     -0.00040000     -0.00040000</v>
    <i type="int" name="LMAXPAW">  -100</i>
    <i type="int" name="LMAXMIX">     2</i>
    <i type="logical" name="NLSPLINE"> F  </i>
   </separator>
   <separator name="electronic startup" >
    <i type="int" name="ISTART">     1</i>
    <i type="int" name="ICHARG">    11</i>
    <i type="int" name="INIWAV">     1</i>
   </separator>
   <separator name="electronic spin" >
    <i type="int" name="ISPIN">     1</i>
    <i type="logical" name="LNONCOLLINEAR"> F  </i>
    <v name="MAGMOM">      1.00000000      1.00000000      1.00000000      1.00000000      1.00000000      1.00000000      1.00000000      1.00000000      1.00000000      1.00000000      1.00000000      1.00000000      1.00000000      1.00000000      1.00000000      1.00000000      1.00000000      1.00000000      1.00000000      1.00000000
      1.00000000      1.00000000      1.00000000      1.00000000      1.00000000      1.00000000      1.00000000      1.00000000      1.00000000      1.00000000      1.00000000      1.00000000      1.00000000      1.00000000      1.00000000      1.00000000      1.00000000      1.00000000      1.00000000      1.00000000
      1.00000000      1.00000000      1.00000000      1.00000000      1.00000000      1.00000000      1.00000000      1.00000000      1.00000000      1.00000000      1.00000000      1.00000000      1.00000000      1.00000000      1.00000000      1.00000000      1.00000000      1.00000000      1.00000000      1.00000000
      1.00000000      1.00000000      1.00000000      1.00000000      1.00000000      1.00000000      1.00000000      1.00000000      1.00000000      1.00000000      1.00000000      1.00000000      1.00000000      1.00000000      1.00000000      1.00000000      1.00000000      1.00000000      1.00000000      1.00000000
      1.00000000      1.00000000      1.00000000      1.00000000      1.00000000      1.00000000      1.00000000      1.00000000      1.00000000      1.00000000      1.00000000      1.00000000      1.00000000      1.00000000      1.00000000      1.00000000      1.00000000      1.00000000      1.00000000      1.00000000
      1.00000000      1.00000000      1.00000000      1.00000000      1.00000000      1.00000000      1.00000000      1.00000000</v>
    <i name="NUPDOWN">     -1.00000000</i>
    <i type="logical" name="LSORBIT"> F  </i>
    <v name="SAXIS">      0.00000000      0.00000000      1.00000000</v>
    <i type="logical" name="LSPIRAL"> F  </i>
    <v name="QSPIRAL">      0.00000000      0.00000000      0.00000000</v>
    <i type="logical" name="LZEROZ"> F  </i>
   </separator>
   <separator name="electronic exchange-correlation" >
    <i type="logical" name="LASPH"> F  </i>
    <i type="logical" name="LMETAGGA"> F  </i>
   </separator>
   <separator name="electronic convergence" >
    <i type="int" name="NELM">   200</i>
    <i type="int" name="NELMDL">     0</i>
    <i type="int" name="NELMIN">     2</i>
    <i name="ENINI">    500.00000000</i>
    <separator name="electronic convergence detail" >
     <i type="logical" name="LDIAG"> T  </i>
     <i type="logical" name="LSUBROT"> F  </i>
     <i name="WEIMIN">      0.00000000</i>
     <i name="EBREAK">      0.00000001</i>
     <i name="DEPER">      0.30000000</i>
     <i type="int" name="NRMM">     4</i>
     <i name="TIME">      0.40000000</i>
    </separator>
   </separator>
   <separator name="electronic mixer" >
    <i name="AMIX">      0.40000000</i>
    <i name="BMIX">      1.00000000</i>
    <i name="AMIN">      0.10000000</i>
    <i name="AMIX_MAG">      1.60000000</i>
    <i name="BMIX_MAG">      1.00000000</i>
    <separator name="electronic mixer details" >
     <i type="int" name="IMIX">     4</i>
     <i type="logical" name="MIXFIRST"> F  </i>
     <i type="int" name="MAXMIX">   -45</i>
     <i name="WC">    100.00000000</i>
     <i type="int" name="INIMIX">     1</i>
     <i type="int" name="MIXPRE">     1</i>
     <i type="int" name="MREMOVE">     5</i>
    </separator>
   </separator>
   <separator name="electronic dipolcorrection" >
    <i type="logical" name="LDIPOL"> F  </i>
    <i type="logical" name="LMONO"> F  </i>
    <i type="int" name="IDIPOL">     0</i>
    <i name="EPSILON">      1.00000000</i>
    <v name="DIPOL">   -100.00000000   -100.00000000   -100.00000000</v>
    <i name="EFIELD">      0.00000000</i>
   </separator>
  </separator>
  <separator name="grids" >
   <i type="int" name="NGX">   224</i>
   <i type="int" name="NGY">   224</i>
   <i type="int" name="NGZ">   150</i>
   <i type="int" name="NGXF">   336</i>
   <i type="int" name="NGYF">   336</i>
   <i type="int" name="NGZF">   224</i>
   <i type="logical" name="ADDGRID"> F  </i>
  </separator>
  <separator name="ionic" >
   <i type="int" name="NSW">     0</i>
   <i type="int" name="IBRION">    -1</i>
   <i type="int" name="MDALGO">     0</i>
   <i type="int" name="ISIF">     2</i>
   <i name="PSTRESS">      0.00000000</i>
   <i name="EDIFFG">     -0.01000000</i>
   <i type="int" name="NFREE">     0</i>
   <i name="POTIM">      0.30000000</i>
   <i name="SMASS">     -3.00000000</i>
   <i name="SCALEE">      1.00000000</i>
  </separator>
  <separator name="ionic md" >
   <i name="TEBEG">      0.00010000</i>
   <i name="TEEND">      0.00010000</i>
   <i type="int" name="NBLOCK">     1</i>
   <i type="int" name="KBLOCK">     1</i>
   <i type="int" name="NPACO">   256</i>
   <i name="APACO">     16.00000000</i>
  </separator>
  <separator name="symmetry" >
   <i type="int" name="ISYM">     2</i>
   <i name="SYMPREC">      0.00001000</i>
  </separator>
  <separator name="dos" >
   <i type="int" name="LORBIT">     0</i>
   <v name="RWIGS">     -1.00000000     -1.00000000     -1.00000000</v>
   <i type="int" name="NEDOS">   301</i>
   <i name="EMIN">     10.00000000</i>
   <i name="EMAX">    -10.00000000</i>
   <i name="EFERMI">      0.00000000</i>
  </separator>
  <separator name="writing" >
   <i type="int" name="NWRITE">     0</i>
   <i type="logical" name="LWAVE"> F  </i>
   <i type="logical" name="LDOWNSAMPLE"> F  </i>
   <i type="logical" name="LCHARG"> F  </i>
   <i type="logical" name="LPARD"> F  </i>
   <i type="logical" name="LVTOT"> F  </i>
   <i type="logical" name="LVHAR"> F  </i>
   <i type="logical" name="LELF"> F  </i>
   <i type="logical" name="LOPTICS"> F  </i>
   <v name="STM">      0.00000000      0.00000000      0.00000000      0.00000000      0.00000000      0.00000000      0.00000000</v>
  </separator>
  <separator name="performance" >
   <i type="int" name="NPAR">    16</i>
   <i type="int" name="NSIM">     4</i>
   <i type="int" name="NBLK">    -1</i>
   <i type="logical" name="LPLANE"> T  </i>
   <i type="logical" name="LSCALAPACK"> T  </i>
   <i type="logical" name="LSCAAWARE"> F  </i>
   <i type="logical" name="LSCALU"> F  </i>
   <i type="logical" name="LASYNC"> F  </i>
   <i type="logical" name="LORBITALREAL"> F  </i>
  </separator>
  <separator name="miscellaneous" >
   <i type="int" name="IDIOT">     3</i>
   <i type="int" name="ISPECIAL">     0</i>
   <i type="logical" name="LMUSIC"> F  </i>
   <v name="POMASS">     12.01100000      1.00000000     14.00100000</v>
   <v name="DARWINR">      0.00000000      0.00000000      0.00000000</v>
   <v name="DARWINV">      1.00000000      1.00000000      1.00000000</v>
   <i type="logical" name="LCORR"> T  </i>
  </separator>
  <i type="logical" name="GGA_COMPAT"> T  </i>
  <i type="logical" name="LBERRY"> F  </i>
  <i type="int" name="ICORELEVEL">     0</i>
  <i type="logical" name="LDAU"> F  </i>
  <i type="int" name="I_CONSTRAINED_M">     0</i>
  <separator name="electronic exchange-correlation" >
   <i type="string" name="GGA">PE</i>
   <i type="int" name="VOSKOWN">     0</i>
   <i type="logical" name="LHFCALC"> F  </i>
   <i type="string" name="PRECFOCK"></i>
   <i type="logical" name="LSYMGRAD"> F  </i>
   <i type="logical" name="LHFONE"> F  </i>
   <i type="logical" name="LRHFCALC"> F  </i>
   <i type="logical" name="LTHOMAS"> F  </i>
   <i type="logical" name="LMODELHF"> F  </i>
   <i name="ENCUT4O">     -1.00000000</i>
   <i type="int" name="EXXOEP">     0</i>
   <i type="int" name="FOURORBIT">     0</i>
   <i name="AEXX">      0.00000000</i>
   <i name="HFALPHA">      0.00000000</i>
   <i name="MCALPHA">      0.00000000</i>
   <i name="ALDAX">      1.00000000</i>
   <i name="AGGAX">      1.00000000</i>
   <i name="ALDAC">      1.00000000</i>
   <i name="AGGAC">      1.00000000</i>
   <i type="int" name="NKREDX">     1</i>
   <i type="int" name="NKREDY">     1</i>
   <i type="int" name="NKREDZ">     1</i>
   <i type="logical" name="SHIFTRED"> F  </i>
   <i type="logical" name="ODDONLY"> F  </i>
   <i type="logical" name="EVENONLY"> F  </i>
   <i type="int" name="LMAXFOCK">     0</i>
   <i type="int" name="NMAXFOCKAE">     0</i>
   <i type="logical" name="LFOCKAEDFT"> F  </i>
   <i name="HFSCREEN">      0.00000000</i>
   <i name="HFSCREENC">      0.00000000</i>
   <i type="int" name="NBANDSGWLOW">     0</i>
  </separator>
  <separator name="vdW DFT" >
   <i type="logical" name="LUSE_VDW"> F  </i>
   <i name="Zab_VDW">     -0.84910000</i>
   <i name="PARAM1">      0.12340000</i>
   <i name="PARAM2">      1.00000000</i>
   <i name="PARAM3">      0.00000000</i>
  </separator>
  <separator name="model GW" >
   <i type="int" name="MODEL_GW">     0</i>
   <i name="MODEL_EPS0">     85.43912369</i>
   <i name="MODEL_ALPHA">      1.00000000</i>
  </separator>
  <separator name="linear response parameters" >
   <i type="logical" name="LEPSILON"> F  </i>
   <i type="logical" name="LRPA"> F  </i>
   <i type="logical" name="LNABLA"> F  </i>
   <i type="logical" name="LVEL"> F  </i>
   <i type="int" name="KINTER">     0</i>
   <i name="CSHIFT">      0.10000000</i>
   <i name="OMEGAMAX">     -1.00000000</i>
   <i name="DEG_THRESHOLD">      0.00200000</i>
   <i name="RTIME">     -0.10000000</i>
   <i name="WPLASMAI">      0.00000000</i>
   <v name="DFIELD">      0.00000000      0.00000000      0.00000000</v>
   <v name="WPLASMA">      0.00000000      0.00000000      0.00000000      0.00000000      0.00000000      0.00000000      0.00000000      0.00000000      0.00000000</v>
  </separator>
  <separator name="orbital magnetization" >
   <i type="logical" name="NUCIND"> F  </i>
   <v name="MAGPOS">      0.00000000      0.00000000      0.00000000</v>
   <i type="logical" name="LNICSALL"> T  </i>
   <i type="logical" name="ORBITALMAG"> F  </i>
   <i type="logical" name="LMAGBLOCH"> F  </i>
   <i type="logical" name="LCHIMAG"> F  </i>
   <i type="logical" name="LGAUGE"> T  </i>
   <i type="int" name="MAGATOM">     0</i>
   <v name="MAGDIPOL">      0.00000000      0.00000000      0.00000000</v>
   <v name="AVECCONST">      0.00000000      0.00000000      0.00000000</v>
  </separator>
  <separator name="response functions" >
   <i type="logical" name="LADDER"> F  </i>
   <i type="logical" name="LRPAFORCE"> F  </i>
   <i type="logical" name="LFXC"> F  </i>
   <i type="logical" name="LHARTREE"> T  </i>
   <i type="int" name="IBSE">     0</i>
   <v type="int" name="KPOINT">    -1     0     0     0</v>
   <i type="logical" name="LTCTE"> F  </i>
   <i type="logical" name="LTETE"> F  </i>
   <i type="logical" name="LTRIPLET"> F  </i>
   <i type="logical" name="LFXCEPS"> F  </i>
   <i type="logical" name="LFXHEG"> F  </i>
   <i type="int" name="NATURALO">     2</i>
   <i type="logical" name="L2ORDER"> F  </i>
   <i type="logical" name="LMP2LT"> F  </i>
   <i type="logical" name="LUSEW"> F  </i>
   <i name="ENCUTGW">     -2.00000000</i>
   <i name="ENCUTGWSOFT">     -2.00000000</i>
   <i name="ENCUTLF">     -1.00000000</i>
   <i type="int" name="LMAXMP2">    -1</i>
   <i name="SCISSOR">      0.00000000</i>
   <i type="int" name="NOMEGA">     0</i>
   <i type="int" name="NOMEGAR">     0</i>
   <i type="int" name="NBANDSGW">    -1</i>
   <i type="int" name="NBANDSO">    -1</i>
   <i type="int" name="NBANDSV">    -1</i>
   <i type="int" name="NELM">   200</i>
   <i type="int" name="NELMHF">     1</i>
   <i type="int" name="DIM">     3</i>
   <i type="int" name="ANTIRES">     0</i>
   <i name="OMEGAMAX">    -30.00000000</i>
   <i name="OMEGAMIN">    -30.00000000</i>
   <i name="OMEGATL">   -200.00000000</i>
   <i type="int" name="OMEGAGRID">   140</i>
   <i name="CSHIFT">     -0.10000000</i>
   <i type="logical" name="SELFENERGY"> F  </i>
   <i type="logical" name="LSPECTRAL"> F  </i>
   <i type="logical" name="LSPECTRALGW"> F  </i>
   <i type="logical" name="LSINGLES"> F  </i>
   <i type="logical" name="LFERMIGW"> F  </i>
   <i type="logical" name="ODDONLYGW"> F  </i>
   <i type="logical" name="EVENONLYGW"> F  </i>
   <i type="int" name="NKREDLFX">     1</i>
   <i type="int" name="NKREDLFY">     1</i>
   <i type="int" name="NKREDLFZ">     1</i>
   <i type="int" name="MAXMEM">  2800</i>
   <i type="int" name="TELESCOPE">     0</i>
   <i type="int" name="TAUPAR">     1</i>
   <i type="int" name="OMEGAPAR">    -1</i>
   <i name="LAMBDA">      1.00000000</i>
  </separator>
  <separator name="External order field" >
   <i name="OFIELD_KAPPA">      0.00000000</i>
   <v name="OFIELD_K">      0.00000000      0.00000000      0.00000000</v>
   <i name="OFIELD_Q6_NEAR">      0.00000000</i>
   <i name="OFIELD_Q6_FAR">      0.00000000</i>
   <i name="OFIELD_A">      0.00000000</i>
  </separator>
  <separator name="solvation model" >
   <i type="logical" name="LSOL"> F  </i>
  </separator>
 </parameters>
 <atominfo>
  <atoms>     108 </atoms>
  <types>       3 </types>
  <array name="atoms" >
   <dimension dim="1">ion</dimension>
   <field type="string">element</field>
   <field type="int">atomtype</field>
   <set>
    <rc><c>C </c><c>   1</c></rc>
    <rc><c>C </c><c>   1</c></rc>
    <rc><c>C </c><c>   1</c></rc>
    <rc><c>C </c><c>   1</c></rc>
    <rc><c>C </c><c>   1</c></rc>
    <rc><c>C </c><c>   1</c></rc>
    <rc><c>C </c><c>   1</c></rc>
    <rc><c>C </c><c>   1</c></rc>
    <rc><c>C </c><c>   1</c></rc>
    <rc><c>C </c><c>   1</c></rc>
    <rc><c>C </c><c>   1</c></rc>
    <rc><c>C </c><c>   1</c></rc>
    <rc><c>C </c><c>   1</c></rc>
    <rc><c>C </c><c>   1</c></rc>
    <rc><c>C </c><c>   1</c></rc>
    <rc><c>C </c><c>   1</c></rc>
    <rc><c>C </c><c>   1</c></rc>
    <rc><c>C </c><c>   1</c></rc>
    <rc><c>C </c><c>   1</c></rc>
    <rc><c>C </c><c>   1</c></rc>
    <rc><c>C </c><c>   1</c></rc>
    <rc><c>C </c><c>   1</c></rc>
    <rc><c>C </c><c>   1</c></rc>
    <rc><c>C </c><c>   1</c></rc>
    <rc><c>C </c><c>   1</c></rc>
    <rc><c>C </c><c>   1</c></rc>
    <rc><c>C </c><c>   1</c></rc>
    <rc><c>C </c><c>   1</c></rc>
    <rc><c>C </c><c>   1</c></rc>
    <rc><c>C </c><c>   1</c></rc>
    <rc><c>C </c><c>   1</c></rc>
    <rc><c>C </c><c>   1</c></rc>
    <rc><c>C </c><c>   1</c></rc>
    <rc><c>C </c><c>   1</c></rc>
    <rc><c>C </c><c>   1</c></rc>
    <rc><c>C </c><c>   1</c></rc>
    <rc><c>C </c><c>   1</c></rc>
    <rc><c>C </c><c>   1</c></rc>
    <rc><c>C </c><c>   1</c></rc>
    <rc><c>C </c><c>   1</c></rc>
    <rc><c>C </c><c>   1</c></rc>
    <rc><c>C </c><c>   1</c></rc>
    <rc><c>C </c><c>   1</c></rc>
    <rc><c>C </c><c>   1</c></rc>
    <rc><c>C </c><c>   1</c></rc>
    <rc><c>C </c><c>   1</c></rc>
    <rc><c>C </c><c>   1</c></rc>
    <rc><c>C </c><c>   1</c></rc>
    <rc><c>C </c><c>   1</c></rc>
    <rc><c>C </c><c>   1</c></rc>
    <rc><c>C </c><c>   1</c></rc>
    <rc><c>C </c><c>   1</c></rc>
    <rc><c>C </c><c>   1</c></rc>
    <rc><c>C </c><c>   1</c></rc>
    <rc><c>C </c><c>   1</c></rc>
    <rc><c>C </c><c>   1</c></rc>
    <rc><c>C </c><c>   1</c></rc>
    <rc><c>C </c><c>   1</c></rc>
    <rc><c>C </c><c>   1</c></rc>
    <rc><c>C </c><c>   1</c></rc>
    <rc><c>C </c><c>   1</c></rc>
    <rc><c>C </c><c>   1</c></rc>
    <rc><c>C </c><c>   1</c></rc>
    <rc><c>C </c><c>   1</c></rc>
    <rc><c>C </c><c>   1</c></rc>
    <rc><c>C </c><c>   1</c></rc>
    <rc><c>H </c><c>   2</c></rc>
    <rc><c>H </c><c>   2</c></rc>
    <rc><c>H </c><c>   2</c></rc>
    <rc><c>H </c><c>   2</c></rc>
    <rc><c>H </c><c>   2</c></rc>
    <rc><c>H </c><c>   2</c></rc>
    <rc><c>H </c><c>   2</c></rc>
    <rc><c>H </c><c>   2</c></rc>
    <rc><c>H </c><c>   2</c></rc>
    <rc><c>H </c><c>   2</c></rc>
    <rc><c>H </c><c>   2</c></rc>
    <rc><c>H </c><c>   2</c></rc>
    <rc><c>H </c><c>   2</c></rc>
    <rc><c>H </c><c>   2</c></rc>
    <rc><c>H </c><c>   2</c></rc>
    <rc><c>H </c><c>   2</c></rc>
    <rc><c>H </c><c>   2</c></rc>
    <rc><c>H </c><c>   2</c></rc>
    <rc><c>H </c><c>   2</c></rc>
    <rc><c>H </c><c>   2</c></rc>
    <rc><c>H </c><c>   2</c></rc>
    <rc><c>H </c><c>   2</c></rc>
    <rc><c>H </c><c>   2</c></rc>
    <rc><c>H </c><c>   2</c></rc>
    <rc><c>H </c><c>   2</c></rc>
    <rc><c>H </c><c>   2</c></rc>
    <rc><c>H </c><c>   2</c></rc>
    <rc><c>H </c><c>   2</c></rc>
    <rc><c>H </c><c>   2</c></rc>
    <rc><c>H </c><c>   2</c></rc>
    <rc><c>N </c><c>   3</c></rc>
    <rc><c>N </c><c>   3</c></rc>
    <rc><c>N </c><c>   3</c></rc>
    <rc><c>N </c><c>   3</c></rc>
    <rc><c>N </c><c>   3</c></rc>
    <rc><c>N </c><c>   3</c></rc>
    <rc><c>N </c><c>   3</c></rc>
    <rc><c>N </c><c>   3</c></rc>
    <rc><c>N </c><c>   3</c></rc>
    <rc><c>N </c><c>   3</c></rc>
    <rc><c>N </c><c>   3</c></rc>
    <rc><c>N </c><c>   3</c></rc>
   </set>
  </array>
  <array name="atomtypes" >
   <dimension dim="1">type</dimension>
   <field type="int">atomspertype</field>
   <field type="string">element</field>
   <field>mass</field>
   <field>valence</field>
   <field type="string">pseudopotential</field>
   <set>
    <rc><c>  66</c><c>C </c><c>     12.01100000</c><c>      4.00000000</c><c>  PAW_PBE C 08Apr2002                   </c></rc>
    <rc><c>  30</c><c>H </c><c>      1.00000000</c><c>      1.00000000</c><c>  PAW_PBE H 15Jun2001                   </c></rc>
    <rc><c>  12</c><c>N </c><c>     14.00100000</c><c>      5.00000000</c><c>  PAW_PBE N 08Apr2002                   </c></rc>
   </set>
  </array>
 </atominfo>
 <structure name="initialpos" >
  <crystal>
   <varray name="basis" >
    <v>      29.79653526      -0.00220631       0.00000000 </v>
    <v>      14.89635691      25.80565964       0.00000000 </v>
    <v>       0.00000000       0.00000000      20.00000000 </v>
   </varray>
   <i name="volume">  15379.04226485 </i>
   <varray name="rec_basis" >
    <v>       0.03355951      -0.01937228       0.00000000 </v>
    <v>       0.00000287       0.03874953       0.00000000 </v>
    <v>       0.00000000       0.00000000       0.05000000 </v>
   </varray>
  </crystal>
  <varray name="positions" >
   <v>       0.52950798       0.52950798       0.50407724 </v>
   <v>       0.51485325       0.51485325       0.56405355 </v>
   <v>       0.52773331       0.52773331       0.62768481 </v>
   <v>       0.64225090       0.64225090       0.50512635 </v>
   <v>       0.69661416       0.61600343       0.50510959 </v>
   <v>       0.72472738       0.64225904       0.50509681 </v>
   <v>       0.69661902       0.69661902       0.50507699 </v>
   <v>       0.64225904       0.72472738       0.50509681 </v>
   <v>       0.61600343       0.69661416       0.50510959 </v>
   <v>       0.78248378       0.61339545       0.50510597 </v>
   <v>       0.81111791       0.55884221       0.50501686 </v>
   <v>       0.86505316       0.53172227       0.50486298 </v>
   <v>       0.89263598       0.55836713       0.50476369 </v>
   <v>       0.86501834       0.61258721       0.50510346 </v>
   <v>       0.81108730       0.63935193       0.50520430 </v>
   <v>       0.61336703       0.61336703       0.50511775 </v>
   <v>       0.63930069       0.55881054       0.50509458 </v>
   <v>       0.61250693       0.53166437       0.50487520 </v>
   <v>       0.55828595       0.55828595       0.50460162 </v>
   <v>       0.53166437       0.61250693       0.50487520 </v>
   <v>       0.55881054       0.63930069       0.50509458 </v>
   <v>       0.61339545       0.78248378       0.50510597 </v>
   <v>       0.55884221       0.81111791       0.50501686 </v>
   <v>       0.53172227       0.86505316       0.50486298 </v>
   <v>       0.55836713       0.89263598       0.50476369 </v>
   <v>       0.61258721       0.86501834       0.50510346 </v>
   <v>       0.63935193       0.81108730       0.50520430 </v>
   <v>       0.36388956       0.36388956       0.50431567 </v>
   <v>       0.30952985       0.39013352       0.50433188 </v>
   <v>       0.28141112       0.36388201       0.50436591 </v>
   <v>       0.30951773       0.30951773       0.50441426 </v>
   <v>       0.36388201       0.28141112       0.50436591 </v>
   <v>       0.39013352       0.30952985       0.50433188 </v>
   <v>       0.22365059       0.39278294       0.50440774 </v>
   <v>       0.19506625       0.44733803       0.50458173 </v>
   <v>       0.14113424       0.47451086       0.50481086 </v>
   <v>       0.11349854       0.44792003       0.50488989 </v>
   <v>       0.14106065       0.39369985       0.50445976 </v>
   <v>       0.19499756       0.36687562       0.50429005 </v>
   <v>       0.39277061       0.39277061       0.50437481 </v>
   <v>       0.36683492       0.44732440       0.50442888 </v>
   <v>       0.39362833       0.47447015       0.50469671 </v>
   <v>       0.44784900       0.44784900       0.50499336 </v>
   <v>       0.47447015       0.39362833       0.50469671 </v>
   <v>       0.44732440       0.36683492       0.50442888 </v>
   <v>       0.39278294       0.22365059       0.50440774 </v>
   <v>       0.44733803       0.19506625       0.50458173 </v>
   <v>       0.47451086       0.14113424       0.50481086 </v>
   <v>       0.44792003       0.11349854       0.50488989 </v>
   <v>       0.39369985       0.14106065       0.50445976 </v>
   <v>       0.36687562       0.19499756       0.50429005 </v>
   <v>       0.95018964       0.52963264       0.50418824 </v>
   <v>       0.05594464       0.47675144       0.50549521 </v>
   <v>       0.97956227       0.51538256       0.56410710 </v>
   <v>       0.95388738       0.52867890       0.62778219 </v>
   <v>       0.52963264       0.95018964       0.50418824 </v>
   <v>       0.47675144       0.05594464       0.50549521 </v>
   <v>       0.51538256       0.97956227       0.56410710 </v>
   <v>       0.52867890       0.95388738       0.62778219 </v>
   <v>       0.47662720       0.47662720       0.50556626 </v>
   <v>       0.02657054       0.49111612       0.44557524 </v>
   <v>       0.05214591       0.47812428       0.38183305 </v>
   <v>       0.49111612       0.02657054       0.44557524 </v>
   <v>       0.47812428       0.05214591       0.38183305 </v>
   <v>       0.49128298       0.49128298       0.44559489 </v>
   <v>       0.47846836       0.47846836       0.38188353 </v>
   <v>       0.63398071       0.48938958       0.50479367 </v>
   <v>       0.68145752       0.53632627       0.50525413 </v>
   <v>       0.48938958       0.63398071       0.50479367 </v>
   <v>       0.53632627       0.68145752       0.50525413 </v>
   <v>       0.53634200       0.79145804       0.50503944 </v>
   <v>       0.48944929       0.88585767       0.50471231 </v>
   <v>       0.68150671       0.79140932       0.50533580 </v>
   <v>       0.63409504       0.88578873       0.50511479 </v>
   <v>       0.79140932       0.68150671       0.50533580 </v>
   <v>       0.88578873       0.63409504       0.50511479 </v>
   <v>       0.88585767       0.48944929       0.50471231 </v>
   <v>       0.79145804       0.53634200       0.50503944 </v>
   <v>       0.71765613       0.57392187       0.50517147 </v>
   <v>       0.57392187       0.71765613       0.50517147 </v>
   <v>       0.71766229       0.71766229       0.50512324 </v>
   <v>       0.37215477       0.51674381       0.50481997 </v>
   <v>       0.32467840       0.46980383       0.50425833 </v>
   <v>       0.51674381       0.37215477       0.50481997 </v>
   <v>       0.46980383       0.32467840       0.50425833 </v>
   <v>       0.46979807       0.21476873       0.50456861 </v>
   <v>       0.51678161       0.12036893       0.50506462 </v>
   <v>       0.32472003       0.21464396       0.50407848 </v>
   <v>       0.37224087       0.12024039       0.50447516 </v>
   <v>       0.21464396       0.32472003       0.50407848 </v>
   <v>       0.12024039       0.37224087       0.50447516 </v>
   <v>       0.12036893       0.51678161       0.50506462 </v>
   <v>       0.21476873       0.46979807       0.50456861 </v>
   <v>       0.28849537       0.43221435       0.50432335 </v>
   <v>       0.43221435       0.28849537       0.50432335 </v>
   <v>       0.28847318       0.28847318       0.50449484 </v>
   <v>       0.51734450       0.51734450       0.44502484 </v>
   <v>       0.53855791       0.53855791       0.67896372 </v>
   <v>       0.03169350       0.48929507       0.56460178 </v>
   <v>       0.93234458       0.53980079       0.67912630 </v>
   <v>       0.48929507       0.03169350       0.56460178 </v>
   <v>       0.53980079       0.93234458       0.67912630 </v>
   <v>       0.48878590       0.48878590       0.56462790 </v>
   <v>       0.97443963       0.51715504       0.44509290 </v>
   <v>       0.07342934       0.46741053       0.33030456 </v>
   <v>       0.51715504       0.97443963       0.44509290 </v>
   <v>       0.46741053       0.07342934       0.33030456 </v>
   <v>       0.46780785       0.46780785       0.33037855 </v>
  </varray>
 </structure>
 <calculation>
  <scstep>
   <time name="dav">  639.52  646.57</time>
   <time name="total">  639.79  646.85</time>
   <energy>
    <i name="alphaZ">     38.83415113 </i>
    <i name="ewald">  42018.85586503 </i>
    <i name="hartreedc"> -52672.35206219 </i>
    <i name="XCdc">   1222.25047712 </i>
    <i name="pawpsdc">  33549.80269608 </i>
    <i name="pawaedc"> -33611.92959088 </i>
    <i name="eentropy">     -0.00000000 </i>
    <i name="bandstr">  -4600.97350302 </i>
    <i name="atom">  13260.80692026 </i>
    <i name="e_fr_energy">   -794.70504646 </i>
    <i name="e_wo_entrp">   -794.70504646 </i>
    <i name="e_0_energy">   -794.70504646 </i>
   </energy>
  </scstep>
  <scstep>
   <time name="dav">  719.42  727.45</time>
   <time name="total">  719.42  727.45</time>
   <energy>
    <i name="e_fr_energy">   -795.10894990 </i>
    <i name="e_wo_entrp">   -795.10894990 </i>
    <i name="e_0_energy">   -795.10894990 </i>
   </energy>
  </scstep>
  <scstep>
   <time name="dav">  791.77  800.63</time>
   <time name="total">  791.77  800.63</time>
   <energy>
    <i name="e_fr_energy">   -795.12012256 </i>
    <i name="e_wo_entrp">   -795.12012256 </i>
    <i name="e_0_energy">   -795.12012256 </i>
   </energy>
  </scstep>
  <scstep>
   <time name="dav">  716.95  724.97</time>
   <time name="total">  716.95  724.97</time>
   <energy>
    <i name="e_fr_energy">   -795.12034251 </i>
    <i name="e_wo_entrp">   -795.12034251 </i>
    <i name="e_0_energy">   -795.12034251 </i>
   </energy>
  </scstep>
  <scstep>
   <time name="dav">  693.17  700.76</time>
   <time name="total">  693.17  700.77</time>
   <energy>
    <i name="alphaZ">     38.83415113 </i>
    <i name="ewald">  42018.85586503 </i>
    <i name="hartreedc"> -52672.35206219 </i>
    <i name="XCdc">   1222.25047712 </i>
    <i name="pawpsdc">  33549.80269608 </i>
    <i name="pawaedc"> -33611.92959088 </i>
    <i name="eentropy">     -0.00000000 </i>
    <i name="bandstr">  -4601.38880716 </i>
    <i name="atom">  13260.80692026 </i>
    <i name="e_fr_energy">   -795.12035059 </i>
    <i name="e_wo_entrp">   -795.12035059 </i>
    <i name="e_0_energy">   -795.12035059 </i>
   </energy>
  </scstep>
  <structure>
   <crystal>
    <varray name="basis" >
     <v>      29.79653526      -0.00220631       0.00000000 </v>
     <v>      14.89635691      25.80565964       0.00000000 </v>
     <v>       0.00000000       0.00000000      20.00000000 </v>
    </varray>
    <i name="volume">  15379.04226485 </i>
    <varray name="rec_basis" >
     <v>       0.03355951      -0.01937228       0.00000000 </v>
     <v>       0.00000287       0.03874953       0.00000000 </v>
     <v>       0.00000000       0.00000000       0.05000000 </v>
    </varray>
   </crystal>
   <varray name="positions" >
    <v>       0.52950798       0.52950798       0.50407724 </v>
    <v>       0.51485325       0.51485325       0.56405355 </v>
    <v>       0.52773331       0.52773331       0.62768481 </v>
    <v>       0.64225090       0.64225090       0.50512635 </v>
    <v>       0.69661416       0.61600343       0.50510959 </v>
    <v>       0.72472738       0.64225904       0.50509681 </v>
    <v>       0.69661902       0.69661902       0.50507699 </v>
    <v>       0.64225904       0.72472738       0.50509681 </v>
    <v>       0.61600343       0.69661416       0.50510959 </v>
    <v>       0.78248378       0.61339545       0.50510597 </v>
    <v>       0.81111791       0.55884221       0.50501686 </v>
    <v>       0.86505316       0.53172227       0.50486298 </v>
    <v>       0.89263598       0.55836713       0.50476369 </v>
    <v>       0.86501834       0.61258721       0.50510346 </v>
    <v>       0.81108730       0.63935193       0.50520430 </v>
    <v>       0.61336703       0.61336703       0.50511775 </v>
    <v>       0.63930069       0.55881054       0.50509458 </v>
    <v>       0.61250693       0.53166437       0.50487520 </v>
    <v>       0.55828595       0.55828595       0.50460162 </v>
    <v>       0.53166437       0.61250693       0.50487520 </v>
    <v>       0.55881054       0.63930069       0.50509458 </v>
    <v>       0.61339545       0.78248378       0.50510597 </v>
    <v>       0.55884221       0.81111791       0.50501686 </v>
    <v>       0.53172227       0.86505316       0.50486298 </v>
    <v>       0.55836713       0.89263598       0.50476369 </v>
    <v>       0.61258721       0.86501834       0.50510346 </v>
    <v>       0.63935193       0.81108730       0.50520430 </v>
    <v>       0.36388956       0.36388956       0.50431567 </v>
    <v>       0.30952985       0.39013352       0.50433188 </v>
    <v>       0.28141112       0.36388201       0.50436591 </v>
    <v>       0.30951773       0.30951773       0.50441426 </v>
    <v>       0.36388201       0.28141112       0.50436591 </v>
    <v>       0.39013352       0.30952985       0.50433188 </v>
    <v>       0.22365059       0.39278294       0.50440774 </v>
    <v>       0.19506625       0.44733803       0.50458173 </v>
    <v>       0.14113424       0.47451086       0.50481086 </v>
    <v>       0.11349854       0.44792003       0.50488989 </v>
    <v>       0.14106065       0.39369985       0.50445976 </v>
    <v>       0.19499756       0.36687562       0.50429005 </v>
    <v>       0.39277061       0.39277061       0.50437481 </v>
    <v>       0.36683492       0.44732440       0.50442888 </v>
    <v>       0.39362833       0.47447015       0.50469671 </v>
    <v>       0.44784900       0.44784900       0.50499336 </v>
    <v>       0.47447015       0.39362833       0.50469671 </v>
    <v>       0.44732440       0.36683492       0.50442888 </v>
    <v>       0.39278294       0.22365059       0.50440774 </v>
    <v>       0.44733803       0.19506625       0.50458173 </v>
    <v>       0.47451086       0.14113424       0.50481086 </v>
    <v>       0.44792003       0.11349854       0.50488989 </v>
    <v>       0.39369985       0.14106065       0.50445976 </v>
    <v>       0.36687562       0.19499756       0.50429005 </v>
    <v>       0.95018964       0.52963264       0.50418824 </v>
    <v>       0.05594464       0.47675144       0.50549521 </v>
    <v>       0.97956227       0.51538256       0.56410710 </v>
    <v>       0.95388738       0.52867890       0.62778219 </v>
    <v>       0.52963264       0.95018964       0.50418824 </v>
    <v>       0.47675144       0.05594464       0.50549521 </v>
    <v>       0.51538256       0.97956227       0.56410710 </v>
    <v>       0.52867890       0.95388738       0.62778219 </v>
    <v>       0.47662720       0.47662720       0.50556626 </v>
    <v>       0.02657054       0.49111612       0.44557524 </v>
    <v>       0.05214591       0.47812428       0.38183305 </v>
    <v>       0.49111612       0.02657054       0.44557524 </v>
    <v>       0.47812428       0.05214591       0.38183305 </v>
    <v>       0.49128298       0.49128298       0.44559489 </v>
    <v>       0.47846836       0.47846836       0.38188353 </v>
    <v>       0.63398071       0.48938958       0.50479367 </v>
    <v>       0.68145752       0.53632627       0.50525413 </v>
    <v>       0.48938958       0.63398071       0.50479367 </v>
    <v>       0.53632627       0.68145752       0.50525413 </v>
    <v>       0.53634200       0.79145804       0.50503944 </v>
    <v>       0.48944929       0.88585767       0.50471231 </v>
    <v>       0.68150671       0.79140932       0.50533580 </v>
    <v>       0.63409504       0.88578873       0.50511479 </v>
    <v>       0.79140932       0.68150671       0.50533580 </v>
    <v>       0.88578873       0.63409504       0.50511479 </v>
    <v>       0.88585767       0.48944929       0.50471231 </v>
    <v>       0.79145804       0.53634200       0.50503944 </v>
    <v>       0.71765613       0.57392187       0.50517147 </v>
    <v>       0.57392187       0.71765613       0.50517147 </v>
    <v>       0.71766229       0.71766229       0.50512324 </v>
    <v>       0.37215477       0.51674381       0.50481997 </v>
    <v>       0.32467840       0.46980383       0.50425833 </v>
    <v>       0.51674381       0.37215477       0.50481997 </v>
    <v>       0.46980383       0.32467840       0.50425833 </v>
    <v>       0.46979807       0.21476873       0.50456861 </v>
    <v>       0.51678161       0.12036893       0.50506462 </v>
    <v>       0.32472003       0.21464396       0.50407848 </v>
    <v>       0.37224087       0.12024039       0.50447516 </v>
    <v>       0.21464396       0.32472003       0.50407848 </v>
    <v>       0.12024039       0.37224087       0.50447516 </v>
    <v>       0.12036893       0.51678161       0.50506462 </v>
    <v>       0.21476873       0.46979807       0.50456861 </v>
    <v>       0.28849537       0.43221435       0.50432335 </v>
    <v>       0.43221435       0.28849537       0.50432335 </v>
    <v>       0.28847318       0.28847318       0.50449484 </v>
    <v>       0.51734450       0.51734450       0.44502484 </v>
    <v>       0.53855791       0.53855791       0.67896372 </v>
    <v>       0.03169350       0.48929507       0.56460178 </v>
    <v>       0.93234458       0.53980079       0.67912630 </v>
    <v>       0.48929507       0.03169350       0.56460178 </v>
    <v>       0.53980079       0.93234458       0.67912630 </v>
    <v>       0.48878590       0.48878590       0.56462790 </v>
    <v>       0.97443963       0.51715504       0.44509290 </v>
    <v>       0.07342934       0.46741053       0.33030456 </v>
    <v>       0.51715504       0.97443963       0.44509290 </v>
    <v>       0.46741053       0.07342934       0.33030456 </v>
    <v>       0.46780785       0.46780785       0.33037855 </v>
   </varray>
  </structure>
  <varray name="forces" >
   <v>       0.00051922       0.00029977      -0.00154539 </v>
   <v>      -0.00179952      -0.00103895      -0.00135559 </v>
   <v>      -0.00025573      -0.00014764      -0.00093273 </v>
   <v>       0.00064560       0.00037274       0.00133902 </v>
   <v>      -0.00091624      -0.00005977       0.00134508 </v>
   <v>      -0.00224785       0.00067431       0.00251448 </v>
   <v>       0.00012198       0.00007042       0.00209029 </v>
   <v>      -0.00053995      -0.00228385       0.00251448 </v>
   <v>      -0.00050988      -0.00076360       0.00134508 </v>
   <v>      -0.00160558       0.00025986       0.00146890 </v>
   <v>       0.00152092      -0.00118216      -0.00041064 </v>
   <v>      -0.00106302      -0.00059253      -0.00041049 </v>
   <v>       0.00243776      -0.00005608      -0.00048097 </v>
   <v>       0.00038774      -0.00011322       0.00038139 </v>
   <v>       0.00121770       0.00080821      -0.00000036 </v>
   <v>       0.00204347       0.00117980       0.00221468 </v>
   <v>       0.00176842       0.00091695       0.00002529 </v>
   <v>      -0.00150143      -0.00030555       0.00003772 </v>
   <v>      -0.00042473      -0.00024522      -0.00020871 </v>
   <v>      -0.00101533      -0.00114750       0.00003772 </v>
   <v>       0.00167831       0.00107302       0.00002529 </v>
   <v>      -0.00057774      -0.00152041       0.00146890 </v>
   <v>      -0.00026332       0.00190824      -0.00041064 </v>
   <v>      -0.00104465      -0.00062434      -0.00041049 </v>
   <v>       0.00117031       0.00213920      -0.00048097 </v>
   <v>       0.00009582       0.00039240       0.00038139 </v>
   <v>       0.00130879       0.00065045      -0.00000036 </v>
   <v>      -0.00082653      -0.00047719      -0.00074573 </v>
   <v>      -0.00159457       0.00019184      -0.00112511 </v>
   <v>       0.00129665       0.00160463      -0.00167104 </v>
   <v>      -0.00120642      -0.00069653      -0.00148687 </v>
   <v>       0.00203797       0.00032061      -0.00167104 </v>
   <v>      -0.00063114      -0.00147686      -0.00112511 </v>
   <v>       0.00048603      -0.00289039      -0.00222754 </v>
   <v>       0.00036910       0.00131296       0.00013338 </v>
   <v>      -0.00031167      -0.00154413       0.00154675 </v>
   <v>      -0.00167245       0.00230203      -0.00003448 </v>
   <v>       0.00073707      -0.00055365       0.00049252 </v>
   <v>       0.00014380       0.00123213      -0.00142050 </v>
   <v>      -0.00064715      -0.00037363      -0.00118190 </v>
   <v>      -0.00034043       0.00094581      -0.00106164 </v>
   <v>       0.00108102      -0.00058994      -0.00031425 </v>
   <v>       0.00045366       0.00026192       0.00124147 </v>
   <v>       0.00002961       0.00123116      -0.00031425 </v>
   <v>       0.00064888      -0.00076772      -0.00106164 </v>
   <v>      -0.00226014       0.00186611      -0.00222754 </v>
   <v>       0.00132160      -0.00033683       0.00013338 </v>
   <v>      -0.00149309       0.00050216       0.00154675 </v>
   <v>       0.00115739      -0.00259940      -0.00003448 </v>
   <v>      -0.00011094       0.00091514       0.00049252 </v>
   <v>       0.00113896      -0.00049153      -0.00142050 </v>
   <v>      -0.00436154       0.00362204       0.00028683 </v>
   <v>       0.00216654      -0.00018014       0.00011478 </v>
   <v>       0.00203329      -0.00035222      -0.00141875 </v>
   <v>       0.00195321      -0.00209825      -0.00524712 </v>
   <v>       0.00095601      -0.00558823       0.00028683 </v>
   <v>       0.00092727       0.00196635       0.00011478 </v>
   <v>       0.00071162       0.00193699      -0.00141875 </v>
   <v>      -0.00084053       0.00274065      -0.00524712 </v>
   <v>      -0.00245835      -0.00141933      -0.00203305 </v>
   <v>      -0.00560697       0.00308597       0.00286854 </v>
   <v>      -0.00101334       0.00138019       0.00324490 </v>
   <v>      -0.00013096      -0.00639877       0.00286854 </v>
   <v>       0.00068861      -0.00156768       0.00324490 </v>
   <v>       0.00017994       0.00010389       0.00013710 </v>
   <v>      -0.00129633      -0.00074844       0.00245824 </v>
   <v>       0.00093132       0.00063875      -0.00095541 </v>
   <v>      -0.00083461       0.00142672      -0.00093020 </v>
   <v>       0.00101883       0.00048717      -0.00095541 </v>
   <v>       0.00081827      -0.00143615      -0.00093020 </v>
   <v>       0.00006713      -0.00020141       0.00087995 </v>
   <v>       0.00020175      -0.00017593      -0.00170567 </v>
   <v>      -0.00006373      -0.00062421       0.00219780 </v>
   <v>       0.00001376      -0.00029082      -0.00021694 </v>
   <v>      -0.00057245       0.00025691       0.00219780 </v>
   <v>      -0.00024497       0.00015733      -0.00021694 </v>
   <v>      -0.00005148       0.00026268      -0.00170567 </v>
   <v>      -0.00014086       0.00015884       0.00087995 </v>
   <v>      -0.00004238       0.00019520       0.00195163 </v>
   <v>       0.00014786      -0.00013431       0.00195163 </v>
   <v>      -0.00008336      -0.00004813       0.00091210 </v>
   <v>       0.00005945      -0.00039309       0.00088546 </v>
   <v>       0.00060891      -0.00074177      -0.00033801 </v>
   <v>      -0.00031070       0.00024803       0.00088546 </v>
   <v>      -0.00033793       0.00089821      -0.00033801 </v>
   <v>      -0.00081873      -0.00027518       0.00006854 </v>
   <v>       0.00020840      -0.00063980       0.00049369 </v>
   <v>      -0.00032995       0.00032233      -0.00222781 </v>
   <v>      -0.00112657      -0.00072047      -0.00181956 </v>
   <v>       0.00011417      -0.00044691      -0.00222781 </v>
   <v>      -0.00118723      -0.00061540      -0.00181956 </v>
   <v>      -0.00044989       0.00050038       0.00049369 </v>
   <v>      -0.00064768      -0.00057145       0.00006854 </v>
   <v>      -0.00021602      -0.00044513      -0.00200845 </v>
   <v>      -0.00049351       0.00003549      -0.00200845 </v>
   <v>      -0.00028630      -0.00016529      -0.00092607 </v>
   <v>       0.00052957       0.00030575      -0.00025100 </v>
   <v>       0.00029092       0.00016796       0.00468950 </v>
   <v>      -0.00319277       0.00228338       0.00294474 </v>
   <v>       0.00162383      -0.00072558       0.00553607 </v>
   <v>       0.00038108      -0.00390671       0.00294474 </v>
   <v>       0.00018354       0.00176907       0.00553607 </v>
   <v>       0.00046156       0.00026648      -0.00045786 </v>
   <v>       0.00397552      -0.00074683      -0.00121918 </v>
   <v>       0.00215961       0.00001490      -0.00295467 </v>
   <v>       0.00134099       0.00381632      -0.00121918 </v>
   <v>       0.00109271       0.00186283      -0.00295467 </v>
   <v>       0.00033518       0.00019352      -0.00239675 </v>
  </varray>
  <varray name="stress" >
   <v>       0.00024604       0.00160273      -0.00173908 </v>
   <v>       0.00160273      -0.00160464      -0.00100406 </v>
   <v>      -0.00173908      -0.00100406      -0.13643785 </v>
  </varray>
  <energy>
   <i name="e_fr_energy">   -797.29504764 </i>
   <i name="e_wo_entrp">   -797.29504764 </i>
   <i name="e_0_energy">     -0.00000000 </i>
  </energy>
  <time name="totalsc"> 4308.81 4360.84</time>
  <eigenvalues>
   <array>
    <dimension dim="1">band</dimension>
    <dimension dim="2">kpoint</dimension>
    <dimension dim="3">spin</dimension>
    <field>eigene</field>
    <field>occ</field>
    <set>
     <set comment="spin 1">
      <set comment="kpoint 1">
       <r>  -25.6166    1.0000 </r>
       <r>  -25.6152    1.0000 </r>
       <r>  -25.6152    1.0000 </r>
       <r>  -23.7713    1.0000 </r>
       <r>  -23.7707    1.0000 </r>
       <r>  -23.7706    1.0000 </r>
       <r>  -22.8078    1.0000 </r>
       <r>  -22.8071    1.0000 </r>
       <r>  -22.8069    1.0000 </r>
       <r>  -22.7152    1.0000 </r>
       <r>  -22.7152    1.0000 </r>
       <r>  -22.7147    1.0000 </r>
       <r>  -22.1204    1.0000 </r>
       <r>  -22.1053    1.0000 </r>
       <r>  -21.8821    1.0000 </r>
       <r>  -21.8814    1.0000 </r>
       <r>  -21.7756    1.0000 </r>
       <r>  -21.7751    1.0000 </r>
       <r>  -21.5671    1.0000 </r>
       <r>  -21.3489    1.0000 </r>
       <r>  -20.9485    1.0000 </r>
       <r>  -20.9479    1.0000 </r>
       <r>  -20.6660    1.0000 </r>
       <r>  -20.0464    1.0000 </r>
       <r>  -20.0458    1.0000 </r>
       <r>  -19.5746    1.0000 </r>
       <r>  -19.5745    1.0000 </r>
       <r>  -19.3171    1.0000 </r>
       <r>  -18.8467    1.0000 </r>
       <r>  -18.8463    1.0000 </r>
       <r>  -18.8155    1.0000 </r>
       <r>  -18.8149    1.0000 </r>
       <r>  -18.7910    1.0000 </r>
       <r>  -18.7884    1.0000 </r>
       <r>  -18.5570    1.0000 </r>
       <r>  -18.4980    1.0000 </r>
       <r>  -18.4971    1.0000 </r>
       <r>  -18.4281    1.0000 </r>
       <r>  -18.4120    1.0000 </r>
       <r>  -18.4112    1.0000 </r>
       <r>  -17.9257    1.0000 </r>
       <r>  -17.9256    1.0000 </r>
       <r>  -17.1542    1.0000 </r>
       <r>  -17.0310    1.0000 </r>
       <r>  -17.0301    1.0000 </r>
       <r>  -16.1132    1.0000 </r>
       <r>  -16.1131    1.0000 </r>
       <r>  -15.8659    1.0000 </r>
       <r>  -15.8639    1.0000 </r>
       <r>  -15.6576    1.0000 </r>
       <r>  -15.3811    1.0000 </r>
       <r>  -15.3696    1.0000 </r>
       <r>  -15.3476    1.0000 </r>
       <r>  -15.2197    1.0000 </r>
       <r>  -15.2191    1.0000 </r>
       <r>  -15.1366    1.0000 </r>
       <r>  -15.1339    1.0000 </r>
       <r>  -14.6186    1.0000 </r>
       <r>  -14.6168    1.0000 </r>
       <r>  -14.5165    1.0000 </r>
       <r>  -14.4234    1.0000 </r>
       <r>  -14.4207    1.0000 </r>
       <r>  -14.2371    1.0000 </r>
       <r>  -14.2333    1.0000 </r>
       <r>  -14.1504    1.0000 </r>
       <r>  -14.1010    1.0000 </r>
       <r>  -14.0703    1.0000 </r>
       <r>  -14.0690    1.0000 </r>
       <r>  -14.0380    1.0000 </r>
       <r>  -14.0370    1.0000 </r>
       <r>  -13.6113    1.0000 </r>
       <r>  -13.4776    1.0000 </r>
       <r>  -12.8872    1.0000 </r>
       <r>  -12.8871    1.0000 </r>
       <r>  -12.4239    1.0000 </r>
       <r>  -12.4226    1.0000 </r>
       <r>  -12.3767    1.0000 </r>
       <r>  -12.2874    1.0000 </r>
       <r>  -12.2806    1.0000 </r>
       <r>  -12.1975    1.0000 </r>
       <r>  -12.1341    1.0000 </r>
       <r>  -12.0113    1.0000 </r>
       <r>  -12.0110    1.0000 </r>
       <r>  -11.6974    1.0000 </r>
       <r>  -11.5309    1.0000 </r>
       <r>  -11.5297    1.0000 </r>
       <r>  -11.5133    1.0000 </r>
       <r>  -11.3880    1.0000 </r>
       <r>  -11.3878    1.0000 </r>
       <r>  -11.2218    1.0000 </r>
       <r>  -11.2210    1.0000 </r>
       <r>  -10.9980    1.0000 </r>
       <r>  -10.9978    1.0000 </r>
       <r>  -10.8436    1.0000 </r>
       <r>  -10.8433    1.0000 </r>
       <r>  -10.8015    1.0000 </r>
       <r>  -10.8014    1.0000 </r>
       <r>  -10.5742    1.0000 </r>
       <r>  -10.5518    1.0000 </r>
       <r>  -10.5458    1.0000 </r>
       <r>  -10.5388    1.0000 </r>
       <r>  -10.3953    1.0000 </r>
       <r>  -10.3949    1.0000 </r>
       <r>  -10.3768    1.0000 </r>
       <r>  -10.3764    1.0000 </r>
       <r>  -10.3749    1.0000 </r>
       <r>  -10.2349    1.0000 </r>
       <r>  -10.0946    1.0000 </r>
       <r>  -10.0848    1.0000 </r>
       <r>   -9.9458    1.0000 </r>
       <r>   -9.9455    1.0000 </r>
       <r>   -9.9450    1.0000 </r>
       <r>   -9.5961    1.0000 </r>
       <r>   -9.5956    1.0000 </r>
       <r>   -9.5509    1.0000 </r>
       <r>   -9.5504    1.0000 </r>
       <r>   -9.3559    1.0000 </r>
       <r>   -9.3249    1.0000 </r>
       <r>   -9.3244    1.0000 </r>
       <r>   -9.2586    1.0000 </r>
       <r>   -9.2583    1.0000 </r>
       <r>   -9.2486    1.0000 </r>
       <r>   -9.0605    1.0000 </r>
       <r>   -8.9626    1.0000 </r>
       <r>   -8.9618    1.0000 </r>
       <r>   -8.9616    1.0000 </r>
       <r>   -8.8070    1.0000 </r>
       <r>   -8.8046    1.0000 </r>
       <r>   -8.8041    1.0000 </r>
       <r>   -8.7411    1.0000 </r>
       <r>   -8.7393    1.0000 </r>
       <r>   -8.7391    1.0000 </r>
       <r>   -8.7375    1.0000 </r>
       <r>   -8.7369    1.0000 </r>
       <r>   -8.7366    1.0000 </r>
       <r>   -8.7322    1.0000 </r>
       <r>   -8.6753    1.0000 </r>
       <r>   -8.6743    1.0000 </r>
       <r>   -8.6266    1.0000 </r>
       <r>   -8.6173    1.0000 </r>
       <r>   -8.6172    1.0000 </r>
       <r>   -8.6150    1.0000 </r>
       <r>   -8.6133    1.0000 </r>
       <r>   -8.5467    1.0000 </r>
       <r>   -8.5453    1.0000 </r>
       <r>   -8.5093    1.0000 </r>
       <r>   -8.4412    1.0000 </r>
       <r>   -8.3359    1.0000 </r>
       <r>   -8.0657    1.0000 </r>
       <r>   -8.0651    1.0000 </r>
       <r>   -8.0528    1.0000 </r>
       <r>   -8.0524    1.0000 </r>
       <r>   -7.9751    1.0000 </r>
       <r>   -7.9751    1.0000 </r>
       <r>   -7.8391    1.0000 </r>
       <r>   -7.6269    1.0000 </r>
       <r>   -7.6268    1.0000 </r>
       <r>   -7.4712    1.0000 </r>
       <r>   -7.4710    1.0000 </r>
       <r>   -7.1458    1.0000 </r>
       <r>   -7.1404    1.0000 </r>
       <r>   -7.1402    1.0000 </r>
       <r>   -6.6738    1.0000 </r>
       <r>   -6.6573    1.0000 </r>
       <r>   -6.6567    1.0000 </r>
       <r>   -6.6544    1.0000 </r>
       <r>   -6.6542    1.0000 </r>
       <r>   -6.6448    1.0000 </r>
       <r>   -6.6399    1.0000 </r>
       <r>   -6.6047    1.0000 </r>
       <r>   -6.6035    1.0000 </r>
       <r>   -6.4057    1.0000 </r>
       <r>   -6.3760    1.0000 </r>
       <r>   -5.7402    1.0000 </r>
       <r>   -5.7400    1.0000 </r>
       <r>   -5.6988    1.0000 </r>
       <r>   -5.6986    1.0000 </r>
       <r>   -3.7981    0.0000 </r>
       <r>   -3.7978    0.0000 </r>
       <r>   -3.7971    0.0000 </r>
       <r>   -2.9153    0.0000 </r>
       <r>   -2.9145    0.0000 </r>
       <r>   -2.9129    0.0000 </r>
       <r>   -2.5365    0.0000 </r>
       <r>   -2.5361    0.0000 </r>
       <r>   -2.4625    0.0000 </r>
       <r>   -2.4612    0.0000 </r>
       <r>   -1.9533    0.0000 </r>
       <r>   -1.7934    0.0000 </r>
       <r>   -1.5133    0.0000 </r>
       <r>   -1.5087    0.0000 </r>
       <r>   -1.5068    0.0000 </r>
       <r>   -1.4639    0.0000 </r>
       <r>   -1.4403    0.0000 </r>
       <r>   -1.4392    0.0000 </r>
       <r>   -0.9104    0.0000 </r>
       <r>   -0.9086    0.0000 </r>
       <r>   -0.8734    0.0000 </r>
       <r>   -0.8729    0.0000 </r>
       <r>   -0.8703    0.0000 </r>
       <r>   -0.8232    0.0000 </r>
       <r>   -0.5841    0.0000 </r>
       <r>   -0.5268    0.0000 </r>
       <r>   -0.5027    0.0000 </r>
       <r>   -0.5017    0.0000 </r>
       <r>   -0.4827    0.0000 </r>
       <r>   -0.4206    0.0000 </r>
       <r>   -0.4203    0.0000 </r>
       <r>   -0.3172    0.0000 </r>
       <r>   -0.3166    0.0000 </r>
       <r>   -0.2453    0.0000 </r>
       <r>   -0.2453    0.0000 </r>
       <r>   -0.2034    0.0000 </r>
       <r>   -0.2032    0.0000 </r>
       <r>   -0.0801    0.0000 </r>
       <r>   -0.0798    0.0000 </r>
       <r>   -0.0455    0.0000 </r>
       <r>    0.1238    0.0000 </r>
       <r>    0.2118    0.0000 </r>
       <r>    0.2137    0.0000 </r>
       <r>    0.2869    0.0000 </r>
       <r>    0.2972    0.0000 </r>
       <r>    0.3675    0.0000 </r>
       <r>    0.4405    0.0000 </r>
       <r>    0.4749    0.0000 </r>
       <r>    0.4761    0.0000 </r>
       <r>    0.4765    0.0000 </r>
       <r>    0.6207    0.0000 </r>
       <r>    0.6214    0.0000 </r>
       <r>    0.6626    0.0000 </r>
       <r>    0.6658    0.0000 </r>
       <r>    0.6962    0.0000 </r>
       <r>    0.7259    0.0000 </r>
       <r>    0.7309    0.0000 </r>
       <r>    0.7764    0.0000 </r>
       <r>    0.7787    0.0000 </r>
       <r>    0.7858    0.0000 </r>
       <r>    0.7870    0.0000 </r>
       <r>    0.8446    0.0000 </r>
       <r>    0.8707    0.0000 </r>
      </set>
      <set comment="kpoint 2">
       <r>  -25.6166    1.0000 </r>
       <r>  -25.6152    1.0000 </r>
       <r>  -25.6152    1.0000 </r>
       <r>  -23.7713    1.0000 </r>
       <r>  -23.7707    1.0000 </r>
       <r>  -23.7706    1.0000 </r>
       <r>  -22.8078    1.0000 </r>
       <r>  -22.8071    1.0000 </r>
       <r>  -22.8069    1.0000 </r>
       <r>  -22.7152    1.0000 </r>
       <r>  -22.7152    1.0000 </r>
       <r>  -22.7147    1.0000 </r>
       <r>  -22.1204    1.0000 </r>
       <r>  -22.1053    1.0000 </r>
       <r>  -21.8820    1.0000 </r>
       <r>  -21.8814    1.0000 </r>
       <r>  -21.7759    1.0000 </r>
       <r>  -21.7751    1.0000 </r>
       <r>  -21.5667    1.0000 </r>
       <r>  -21.3493    1.0000 </r>
       <r>  -20.9480    1.0000 </r>
       <r>  -20.9479    1.0000 </r>
       <r>  -20.6665    1.0000 </r>
       <r>  -20.0458    1.0000 </r>
       <r>  -20.0457    1.0000 </r>
       <r>  -19.5762    1.0000 </r>
       <r>  -19.5745    1.0000 </r>
       <r>  -19.3154    1.0000 </r>
       <r>  -18.8467    1.0000 </r>
       <r>  -18.8464    1.0000 </r>
       <r>  -18.8155    1.0000 </r>
       <r>  -18.8148    1.0000 </r>
       <r>  -18.7910    1.0000 </r>
       <r>  -18.7884    1.0000 </r>
       <r>  -18.5629    1.0000 </r>
       <r>  -18.4971    1.0000 </r>
       <r>  -18.4927    1.0000 </r>
       <r>  -18.4281    1.0000 </r>
       <r>  -18.4120    1.0000 </r>
       <r>  -18.4106    1.0000 </r>
       <r>  -17.9263    1.0000 </r>
       <r>  -17.9256    1.0000 </r>
       <r>  -17.1539    1.0000 </r>
       <r>  -17.0312    1.0000 </r>
       <r>  -17.0301    1.0000 </r>
       <r>  -16.1132    1.0000 </r>
       <r>  -16.1128    1.0000 </r>
       <r>  -15.8659    1.0000 </r>
       <r>  -15.8648    1.0000 </r>
       <r>  -15.6568    1.0000 </r>
       <r>  -15.3811    1.0000 </r>
       <r>  -15.3696    1.0000 </r>
       <r>  -15.3481    1.0000 </r>
       <r>  -15.2194    1.0000 </r>
       <r>  -15.2191    1.0000 </r>
       <r>  -15.1367    1.0000 </r>
       <r>  -15.1339    1.0000 </r>
       <r>  -14.6186    1.0000 </r>
       <r>  -14.6167    1.0000 </r>
       <r>  -14.5169    1.0000 </r>
       <r>  -14.4234    1.0000 </r>
       <r>  -14.4203    1.0000 </r>
       <r>  -14.2375    1.0000 </r>
       <r>  -14.2333    1.0000 </r>
       <r>  -14.1502    1.0000 </r>
       <r>  -14.1011    1.0000 </r>
       <r>  -14.0703    1.0000 </r>
       <r>  -14.0690    1.0000 </r>
       <r>  -14.0380    1.0000 </r>
       <r>  -14.0370    1.0000 </r>
       <r>  -13.6112    1.0000 </r>
       <r>  -13.4779    1.0000 </r>
       <r>  -12.8872    1.0000 </r>
       <r>  -12.8865    1.0000 </r>
       <r>  -12.4253    1.0000 </r>
       <r>  -12.4226    1.0000 </r>
       <r>  -12.3765    1.0000 </r>
       <r>  -12.2872    1.0000 </r>
       <r>  -12.2806    1.0000 </r>
       <r>  -12.1981    1.0000 </r>
       <r>  -12.1329    1.0000 </r>
       <r>  -12.0110    1.0000 </r>
       <r>  -12.0104    1.0000 </r>
       <r>  -11.6979    1.0000 </r>
       <r>  -11.5380    1.0000 </r>
       <r>  -11.5299    1.0000 </r>
       <r>  -11.5067    1.0000 </r>
       <r>  -11.3877    1.0000 </r>
       <r>  -11.3876    1.0000 </r>
       <r>  -11.2218    1.0000 </r>
       <r>  -11.2208    1.0000 </r>
       <r>  -10.9984    1.0000 </r>
       <r>  -10.9978    1.0000 </r>
       <r>  -10.8436    1.0000 </r>
       <r>  -10.8432    1.0000 </r>
       <r>  -10.8015    1.0000 </r>
       <r>  -10.8014    1.0000 </r>
       <r>  -10.5740    1.0000 </r>
       <r>  -10.5518    1.0000 </r>
       <r>  -10.5458    1.0000 </r>
       <r>  -10.5388    1.0000 </r>
       <r>  -10.3953    1.0000 </r>
       <r>  -10.3949    1.0000 </r>
       <r>  -10.3785    1.0000 </r>
       <r>  -10.3763    1.0000 </r>
       <r>  -10.3730    1.0000 </r>
       <r>  -10.2351    1.0000 </r>
       <r>  -10.0946    1.0000 </r>
       <r>  -10.0848    1.0000 </r>
       <r>   -9.9458    1.0000 </r>
       <r>   -9.9455    1.0000 </r>
       <r>   -9.9450    1.0000 </r>
       <r>   -9.5960    1.0000 </r>
       <r>   -9.5956    1.0000 </r>
       <r>   -9.5510    1.0000 </r>
       <r>   -9.5504    1.0000 </r>
       <r>   -9.3558    1.0000 </r>
       <r>   -9.3248    1.0000 </r>
       <r>   -9.3243    1.0000 </r>
       <r>   -9.2587    1.0000 </r>
       <r>   -9.2584    1.0000 </r>
       <r>   -9.2487    1.0000 </r>
       <r>   -9.0604    1.0000 </r>
       <r>   -8.9634    1.0000 </r>
       <r>   -8.9616    1.0000 </r>
       <r>   -8.9607    1.0000 </r>
       <r>   -8.8096    1.0000 </r>
       <r>   -8.8044    1.0000 </r>
       <r>   -8.8021    1.0000 </r>
       <r>   -8.7411    1.0000 </r>
       <r>   -8.7393    1.0000 </r>
       <r>   -8.7391    1.0000 </r>
       <r>   -8.7375    1.0000 </r>
       <r>   -8.7369    1.0000 </r>
       <r>   -8.7365    1.0000 </r>
       <r>   -8.7322    1.0000 </r>
       <r>   -8.6753    1.0000 </r>
       <r>   -8.6742    1.0000 </r>
       <r>   -8.6266    1.0000 </r>
       <r>   -8.6177    1.0000 </r>
       <r>   -8.6175    1.0000 </r>
       <r>   -8.6144    1.0000 </r>
       <r>   -8.6130    1.0000 </r>
       <r>   -8.5469    1.0000 </r>
       <r>   -8.5453    1.0000 </r>
       <r>   -8.5094    1.0000 </r>
       <r>   -8.4409    1.0000 </r>
       <r>   -8.3360    1.0000 </r>
       <r>   -8.0656    1.0000 </r>
       <r>   -8.0651    1.0000 </r>
       <r>   -8.0528    1.0000 </r>
       <r>   -8.0524    1.0000 </r>
       <r>   -7.9751    1.0000 </r>
       <r>   -7.9749    1.0000 </r>
       <r>   -7.8394    1.0000 </r>
       <r>   -7.6268    1.0000 </r>
       <r>   -7.6266    1.0000 </r>
       <r>   -7.4714    1.0000 </r>
       <r>   -7.4710    1.0000 </r>
       <r>   -7.1458    1.0000 </r>
       <r>   -7.1404    1.0000 </r>
       <r>   -7.1402    1.0000 </r>
       <r>   -6.6737    1.0000 </r>
       <r>   -6.6573    1.0000 </r>
       <r>   -6.6567    1.0000 </r>
       <r>   -6.6544    1.0000 </r>
       <r>   -6.6542    1.0000 </r>
       <r>   -6.6448    1.0000 </r>
       <r>   -6.6399    1.0000 </r>
       <r>   -6.6047    1.0000 </r>
       <r>   -6.6036    1.0000 </r>
       <r>   -6.4057    1.0000 </r>
       <r>   -6.3760    1.0000 </r>
       <r>   -5.7401    1.0000 </r>
       <r>   -5.7400    1.0000 </r>
       <r>   -5.6988    1.0000 </r>
       <r>   -5.6986    1.0000 </r>
       <r>   -3.7981    0.0000 </r>
       <r>   -3.7978    0.0000 </r>
       <r>   -3.7971    0.0000 </r>
       <r>   -2.9153    0.0000 </r>
       <r>   -2.9145    0.0000 </r>
       <r>   -2.9129    0.0000 </r>
       <r>   -2.5364    0.0000 </r>
       <r>   -2.5361    0.0000 </r>
       <r>   -2.4626    0.0000 </r>
       <r>   -2.4612    0.0000 </r>
       <r>   -1.9531    0.0000 </r>
       <r>   -1.7937    0.0000 </r>
       <r>   -1.5132    0.0000 </r>
       <r>   -1.5087    0.0000 </r>
       <r>   -1.5067    0.0000 </r>
       <r>   -1.4639    0.0000 </r>
       <r>   -1.4404    0.0000 </r>
       <r>   -1.4392    0.0000 </r>
       <r>   -0.9102    0.0000 </r>
       <r>   -0.9086    0.0000 </r>
       <r>   -0.8734    0.0000 </r>
       <r>   -0.8729    0.0000 </r>
       <r>   -0.8703    0.0000 </r>
       <r>   -0.8233    0.0000 </r>
       <r>   -0.5841    0.0000 </r>
       <r>   -0.5271    0.0000 </r>
       <r>   -0.5026    0.0000 </r>
       <r>   -0.5017    0.0000 </r>
       <r>   -0.4828    0.0000 </r>
       <r>   -0.4204    0.0000 </r>
       <r>   -0.4201    0.0000 </r>
       <r>   -0.3170    0.0000 </r>
       <r>   -0.3165    0.0000 </r>
       <r>   -0.2453    0.0000 </r>
       <r>   -0.2453    0.0000 </r>
       <r>   -0.2034    0.0000 </r>
       <r>   -0.2032    0.0000 </r>
       <r>   -0.0807    0.0000 </r>
       <r>   -0.0801    0.0000 </r>
       <r>   -0.0459    0.0000 </r>
       <r>    0.1243    0.0000 </r>
       <r>    0.2121    0.0000 </r>
       <r>    0.2146    0.0000 </r>
       <r>    0.2870    0.0000 </r>
       <r>    0.2973    0.0000 </r>
       <r>    0.3673    0.0000 </r>
       <r>    0.4397    0.0000 </r>
       <r>    0.4747    0.0000 </r>
       <r>    0.4765    0.0000 </r>
       <r>    0.4774    0.0000 </r>
       <r>    0.6207    0.0000 </r>
       <r>    0.6217    0.0000 </r>
       <r>    0.6616    0.0000 </r>
       <r>    0.6653    0.0000 </r>
       <r>    0.6952    0.0000 </r>
       <r>    0.7262    0.0000 </r>
       <r>    0.7318    0.0000 </r>
       <r>    0.7710    0.0000 </r>
       <r>    0.7756    0.0000 </r>
       <r>    0.7859    0.0000 </r>
       <r>    0.7949    0.0000 </r>
       <r>    0.8420    0.0000 </r>
       <r>    0.8711    0.0000 </r>
      </set>
      <set comment="kpoint 3">
       <r>  -25.6166    1.0000 </r>
       <r>  -25.6152    1.0000 </r>
       <r>  -25.6151    1.0000 </r>
       <r>  -23.7713    1.0000 </r>
       <r>  -23.7706    1.0000 </r>
       <r>  -23.7706    1.0000 </r>
       <r>  -22.8078    1.0000 </r>
       <r>  -22.8071    1.0000 </r>
       <r>  -22.8069    1.0000 </r>
       <r>  -22.7152    1.0000 </r>
       <r>  -22.7152    1.0000 </r>
       <r>  -22.7147    1.0000 </r>
       <r>  -22.1204    1.0000 </r>
       <r>  -22.1054    1.0000 </r>
       <r>  -21.8816    1.0000 </r>
[...]
       <r>   -22.3732     0.0000    24.0000 </r>
       <r>   -22.2760     0.0000    24.0000 </r>
       <r>   -22.1788     0.0000    24.0000 </r>
       <r>   -22.0816    41.1447    27.9998 </r>
       <r>   -21.9844     0.0000    28.0000 </r>
       <r>   -21.8872     5.2450    28.5099 </r>
       <r>   -21.7900    29.3996    33.5252 </r>
       <r>   -21.6928     0.0000    36.0000 </r>
       <r>   -21.5955     0.0000    36.0000 </r>
       <r>   -21.4983    11.4518    37.1133 </r>
       <r>   -21.4011    16.1100    39.1665 </r>
       <r>   -21.3039     6.8553    40.0000 </r>
       <r>   -21.2067     0.0000    40.0000 </r>
       <r>   -21.1095     0.0000    40.0000 </r>
       <r>   -21.0123     0.0000    40.0000 </r>
       <r>   -20.9151    26.5112    42.5772 </r>
       <r>   -20.8178    11.5315    43.8544 </r>
       <r>   -20.7206    11.8258    45.2500 </r>
       <r>   -20.6234     6.5113    46.0000 </r>
       <r>   -20.5262     0.0000    46.0000 </r>
       <r>   -20.4290     0.0000    46.0000 </r>
       <r>   -20.3318     0.0000    46.0000 </r>
       <r>   -20.2346     0.0000    46.0000 </r>
       <r>   -20.1374     0.0000    46.0000 </r>
       <r>   -20.0401    18.3838    47.7871 </r>
       <r>   -19.9429     5.2189    48.9407 </r>
       <r>   -19.8457    10.6570    50.0696 </r>
       <r>   -19.7485     8.9127    51.0667 </r>
       <r>   -19.6513     3.4669    51.4704 </r>
       <r>   -19.5541    24.9891    53.9959 </r>
       <r>   -19.4569     0.0000    54.0000 </r>
       <r>   -19.3597     0.0000    54.0000 </r>
       <r>   -19.2624     4.3022    54.4182 </r>
       <r>   -19.1652     2.8855    54.7805 </r>
       <r>   -19.0680     6.2359    55.4729 </r>
       <r>   -18.9708     6.2489    56.2409 </r>
       <r>   -18.8736     9.1077    57.2523 </r>
       <r>   -18.7764   117.0830    68.8492 </r>
       <r>   -18.6792     3.6660    69.4898 </r>
       <r>   -18.5820     2.6303    69.8224 </r>
       <r>   -18.4847    22.5482    72.0590 </r>
       <r>   -18.3875    63.2138    78.3454 </r>
       <r>   -18.2903     2.9115    78.7164 </r>
       <r>   -18.1931     4.9623    79.2824 </r>
       <r>   -18.0959     7.1152    80.2251 </r>
       <r>   -17.9987     8.7852    81.2210 </r>
       <r>   -17.9015    27.4235    83.9993 </r>
       <r>   -17.8043     0.0000    84.0000 </r>
       <r>   -17.7070     0.0000    84.0000 </r>
       <r>   -17.6098     0.0000    84.0000 </r>
       <r>   -17.5126     0.0000    84.0000 </r>
       <r>   -17.4154     0.0000    84.0000 </r>
       <r>   -17.3182     0.0000    84.0000 </r>
       <r>   -17.2210     0.0000    84.0000 </r>
       <r>   -17.1238     7.9894    84.7767 </r>
       <r>   -17.0266    44.0079    89.3126 </r>
       <r>   -16.9293     0.0000    90.0000 </r>
       <r>   -16.8321     0.0000    90.0000 </r>
       <r>   -16.7349     0.0000    90.0000 </r>
       <r>   -16.6377     0.0000    90.0000 </r>
       <r>   -16.5405     0.0000    90.0000 </r>
       <r>   -16.4433     0.0000    90.0000 </r>
       <r>   -16.3461     0.0000    90.0000 </r>
       <r>   -16.2489     0.0000    90.0000 </r>
       <r>   -16.1516     0.0000    90.0000 </r>
       <r>   -16.0544    33.3934    93.2463 </r>
       <r>   -15.9572    14.6074    95.1205 </r>
       <r>   -15.8600    24.4307    97.6086 </r>
       <r>   -15.7628     0.0000    98.0000 </r>
       <r>   -15.6656     0.1979    98.0192 </r>
       <r>   -15.5684     5.9901    98.8159 </r>
       <r>   -15.4712    12.7846   100.1762 </r>
       <r>   -15.3739    34.4901   103.7864 </r>
       <r>   -15.2767     3.0832   106.0000 </r>
       <r>   -15.1795    32.1789   109.1282 </r>
       <r>   -15.0823    40.0978   114.0000 </r>
       <r>   -14.9851     0.0000   114.0000 </r>
       <r>   -14.8879     0.0000   114.0000 </r>
       <r>   -14.7907     0.0000   114.0000 </r>
       <r>   -14.6935     0.0000   114.0000 </r>
       <r>   -14.5962    32.0988   117.1204 </r>
       <r>   -14.4990    19.8678   119.9988 </r>
       <r>   -14.4018    25.5497   122.4838 </r>
       <r>   -14.3046    18.1651   124.4993 </r>
       <r>   -14.2074    30.1673   127.9995 </r>
       <r>   -14.1102    24.7499   130.4060 </r>
       <r>   -14.0130    82.2882   139.9994 </r>
       <r>   -13.9158     0.0000   140.0000 </r>
       <r>   -13.8185     0.0000   140.0000 </r>
       <r>   -13.7213     0.0000   140.0000 </r>
       <r>   -13.6241     0.0999   140.0097 </r>
       <r>   -13.5269    26.3992   142.9336 </r>
       <r>   -13.4297     7.8828   144.0000 </r>
       <r>   -13.3325     0.0000   144.0000 </r>
       <r>   -13.2353     0.0000   144.0000 </r>
       <r>   -13.1381     0.0000   144.0000 </r>
       <r>   -13.0408     0.0000   144.0000 </r>
       <r>   -12.9436     0.0000   144.0000 </r>
       <r>   -12.8464    26.3783   146.5643 </r>
       <r>   -12.7492     7.5548   147.4013 </r>
       <r>   -12.6520     7.7791   148.3898 </r>
       <r>   -12.5548     6.4266   149.2250 </r>
       <r>   -12.4576     3.6033   149.6503 </r>
       <r>   -12.3604    29.5991   152.6113 </r>
       <r>   -12.2631    63.1352   159.1045 </r>
       <r>   -12.1659     7.1984   160.0000 </r>
       <r>   -12.0687     5.6551   160.5498 </r>
       <r>   -11.9715    27.9997   163.3886 </r>
       <r>   -11.8743    17.2716   165.2459 </r>
       <r>   -11.7771    17.6934   167.3540 </r>
       <r>   -11.6799    12.9752   169.2622 </r>
       <r>   -11.5827     4.3828   169.7927 </r>
       <r>   -11.4854    19.6932   172.2150 </r>
       <r>   -11.3882    16.9936   173.9522 </r>
       <r>   -11.2910    27.7593   178.0000 </r>
       <r>   -11.1938    27.9698   180.7190 </r>
       <r>   -11.0966    14.9486   182.3535 </r>
       <r>   -10.9994    19.3143   184.5787 </r>
       <r>   -10.9022     0.0000   186.0000 </r>
       <r>   -10.8050    58.2438   191.6620 </r>
       <r>   -10.7077     0.0000   194.0000 </r>
       <r>   -10.6105     0.0000   194.0000 </r>
       <r>   -10.5133    82.2930   201.9999 </r>
       <r>   -10.4161     1.0445   202.1015 </r>
       <r>   -10.3189    67.8398   211.0683 </r>
       <r>   -10.2217    23.5695   213.9920 </r>
       <r>   -10.1245     0.0001   214.0000 </r>
       <r>   -10.0273    41.1469   218.0000 </r>
       <r>    -9.9300    60.8098   223.9115 </r>
       <r>    -9.8328     0.0000   224.0000 </r>
       <r>    -9.7356     0.0000   224.0000 </r>
       <r>    -9.6384     0.0000   224.0000 </r>
       <r>    -9.5412    80.0150   231.7785 </r>
       <r>    -9.4440     0.0000   232.0000 </r>
       <r>    -9.3468     7.6205   232.7408 </r>
       <r>    -9.2496    97.9616   243.4585 </r>
       <r>    -9.1523     0.0000   244.0000 </r>
       <r>    -9.0551     4.0847   244.3971 </r>
       <r>    -8.9579    35.9323   248.4270 </r>
       <r>    -8.8607    46.4599   253.8172 </r>
       <r>    -8.7635    31.1232   257.5262 </r>
       <r>    -8.6663   162.6537   274.3513 </r>
       <r>    -8.5691   110.6607   286.4587 </r>
       <r>    -8.4718    38.3814   292.0000 </r>
       <r>    -8.3746    22.3099   294.1688 </r>
       <r>    -8.2774     9.5969   296.0000 </r>
       <r>    -8.1802     0.0000   296.0000 </r>
       <r>    -8.0830     0.2021   296.0196 </r>
       <r>    -7.9858    76.4865   304.1492 </r>
       <r>    -7.8886    26.0046   308.9618 </r>
       <r>    -7.7914     7.5417   310.0000 </r>
       <r>    -7.6941     0.0000   310.0000 </r>
       <r>    -7.5969    27.4457   312.6681 </r>
       <r>    -7.4997    23.6561   315.1667 </r>
       <r>    -7.4025    25.7132   318.0000 </r>
       <r>    -7.3053     0.0000   318.0000 </r>
       <r>    -7.2081     0.0000   318.0000 </r>
       <r>    -7.1109    61.7199   323.9999 </r>
       <r>    -7.0137     0.0000   324.0000 </r>
       <r>    -6.9164     0.0000   324.0000 </r>
       <r>    -6.8192     0.0000   324.0000 </r>
       <r>    -6.7220     0.0000   324.0000 </r>
       <r>    -6.6248   149.9629   338.5783 </r>
       <r>    -6.5276    25.3168   342.0000 </r>
       <r>    -6.4304     0.0011   342.0001 </r>
       <r>    -6.3332    41.1458   346.0000 </r>
       <r>    -6.2360     0.0000   346.0000 </r>
       <r>    -6.1387     0.0000   346.0000 </r>
       <r>    -6.0415     0.0000   346.0000 </r>
       <r>    -5.9443     0.0000   346.0000 </r>
       <r>    -5.8471     0.0000   346.0000 </r>
       <r>    -5.7499     2.1065   346.2048 </r>
       <r>    -5.6527    54.1669   354.0000 </r>
       <r>    -5.5555     0.0000   354.0000 </r>
       <r>    -5.4583     0.0000   354.0000 </r>
       <r>    -5.3610     0.0000   354.0000 </r>
       <r>    -5.2638     0.0000   354.0000 </r>
       <r>    -5.1666     0.0000   354.0000 </r>
       <r>    -5.0694     0.0000   354.0000 </r>
       <r>    -4.9722     0.0000   354.0000 </r>
       <r>    -4.8750     0.0000   354.0000 </r>
       <r>    -4.7778     0.0000   354.0000 </r>
       <r>    -4.6806     0.0000   354.0000 </r>
       <r>    -4.5833     0.0000   354.0000 </r>
       <r>    -4.4861     0.0000   354.0000 </r>
       <r>    -4.3889     0.0000   354.0000 </r>
       <r>    -4.2917     0.0000   354.0000 </r>
       <r>    -4.1945     0.0000   354.0000 </r>
       <r>    -4.0973     0.0000   354.0000 </r>
       <r>    -4.0001     0.0000   354.0000 </r>
       <r>    -3.9029     0.0000   354.0000 </r>
       <r>    -3.8056     8.0757   354.7851 </r>
       <r>    -3.7084     0.0000   360.0000 </r>
       <r>    -3.6112     0.0000   360.0000 </r>
       <r>    -3.5140     0.0000   360.0000 </r>
       <r>    -3.4168     0.0000   360.0000 </r>
       <r>    -3.3196     0.0000   360.0000 </r>
       <r>    -3.2224     0.0000   360.0000 </r>
       <r>    -3.1252     0.0000   360.0000 </r>
       <r>    -3.0279     0.0000   360.0000 </r>
       <r>    -2.9307     0.6211   360.0604 </r>
       <r>    -2.8335     9.1991   366.0000 </r>
       <r>    -2.7363     0.0000   366.0000 </r>
       <r>    -2.6391     0.0000   366.0000 </r>
       <r>    -2.5419     3.7151   366.3612 </r>
       <r>    -2.4447    54.0704   373.9902 </r>
       <r>    -2.3475     0.0000   374.0000 </r>
       <r>    -2.2502     0.0000   374.0000 </r>
       <r>    -2.1530     0.0000   374.0000 </r>
       <r>    -2.0558     0.0000   374.0000 </r>
       <r>    -1.9586     0.6268   374.0609 </r>
       <r>    -1.8614    18.7805   376.3259 </r>
       <r>    -1.7642    10.6276   378.0000 </r>
       <r>    -1.6670     0.0000   378.0000 </r>
       <r>    -1.5698     0.0000   378.0000 </r>
       <r>    -1.4725    64.1478   384.2360 </r>
       <r>    -1.3753    39.0132   390.0000 </r>
       <r>    -1.2781     0.0000   390.0000 </r>
       <r>    -1.1809     0.0000   390.0000 </r>
       <r>    -1.0837     0.0000   390.0000 </r>
       <r>    -0.9865     0.0000   390.0000 </r>
       <r>    -0.8893    29.5445   392.8721 </r>
       <r>    -0.7921    41.0828   402.0000 </r>
       <r>    -0.6948     0.0000   402.0000 </r>
       <r>    -0.5976     0.2925   402.0284 </r>
       <r>    -0.5004    51.3754   408.0310 </r>
       <r>    -0.4032    27.0446   414.4635 </r>
       <r>    -0.3060    31.2941   417.7759 </r>
       <r>    -0.2088    72.1690   425.7494 </r>
       <r>    -0.1116    29.5490   430.8726 </r>
       <r>    -0.0144    25.0211   434.0000 </r>
       <r>     0.0829     0.0000   434.0000 </r>
       <r>     0.1801    13.6108   435.3231 </r>
       <r>     0.2773    27.1545   438.1401 </r>
       <r>     0.3745    72.4823   446.1482 </r>
       <r>     0.4717    28.0537   449.6948 </r>
       <r>     0.5689    44.9064   455.3337 </r>
       <r>     0.6661    77.7327   463.6570 </r>
       <r>     0.7633    50.3736   469.9650 </r>
       <r>     0.8606    50.9735   477.4574 </r>
       <r>     0.9578     9.9313   480.0000 </r>
       <r>     1.0550     0.0000   480.0000 </r>
       <r>     1.1522     0.0000   480.0000 </r>
       <r>     1.2494     0.0000   480.0000 </r>
       <r>     1.3466     0.0000   480.0000 </r>
       <r>     1.4438     0.0000   480.0000 </r>
       <r>     1.5410     0.0000   480.0000 </r>
       <r>     1.6383     0.0000   480.0000 </r>
       <r>     1.7355     0.0000   480.0000 </r>
       <r>     1.8327     0.0000   480.0000 </r>
       <r>     1.9299     0.0000   480.0000 </r>
       <r>     2.0271     0.0000   480.0000 </r>
       <r>     2.1243     0.0000   480.0000 </r>
       <r>     2.2215     0.0000   480.0000 </r>
      </set>
     </set>
    </array>
   </total>
  </dos>
 </calculation>
 <structure name="finalpos" >
  <crystal>
   <varray name="basis" >
    <v>      29.79653526      -0.00220631       0.00000000 </v>
    <v>      14.89635691      25.80565964       0.00000000 </v>
    <v>       0.00000000       0.00000000      20.00000000 </v>
   </varray>
   <i name="volume">  15379.04226485 </i>
   <varray name="rec_basis" >
    <v>       0.03355951      -0.01937228       0.00000000 </v>
    <v>       0.00000287       0.03874953       0.00000000 </v>
    <v>       0.00000000       0.00000000       0.05000000 </v>
   </varray>
  </crystal>
  <varray name="positions" >
   <v>       0.52950798       0.52950798       0.50407724 </v>
   <v>       0.51485325       0.51485325       0.56405355 </v>
   <v>       0.52773331       0.52773331       0.62768481 </v>
   <v>       0.64225090       0.64225090       0.50512635 </v>
   <v>       0.69661416       0.61600343       0.50510959 </v>
   <v>       0.72472738       0.64225904       0.50509681 </v>
   <v>       0.69661902       0.69661902       0.50507699 </v>
   <v>       0.64225904       0.72472738       0.50509681 </v>
   <v>       0.61600343       0.69661416       0.50510959 </v>
   <v>       0.78248378       0.61339545       0.50510597 </v>
   <v>       0.81111791       0.55884221       0.50501686 </v>
   <v>       0.86505316       0.53172227       0.50486298 </v>
   <v>       0.89263598       0.55836713       0.50476369 </v>
   <v>       0.86501834       0.61258721       0.50510346 </v>
   <v>       0.81108730       0.63935193       0.50520430 </v>
   <v>       0.61336703       0.61336703       0.50511775 </v>
   <v>       0.63930069       0.55881054       0.50509458 </v>
   <v>       0.61250693       0.53166437       0.50487520 </v>
   <v>       0.55828595       0.55828595       0.50460162 </v>
   <v>       0.53166437       0.61250693       0.50487520 </v>
   <v>       0.55881054       0.63930069       0.50509458 </v>
   <v>       0.61339545       0.78248378       0.50510597 </v>
   <v>       0.55884221       0.81111791       0.50501686 </v>
   <v>       0.53172227       0.86505316       0.50486298 </v>
   <v>       0.55836713       0.89263598       0.50476369 </v>
   <v>       0.61258721       0.86501834       0.50510346 </v>
   <v>       0.63935193       0.81108730       0.50520430 </v>
   <v>       0.36388956       0.36388956       0.50431567 </v>
   <v>       0.30952985       0.39013352       0.50433188 </v>
   <v>       0.28141112       0.36388201       0.50436591 </v>
   <v>       0.30951773       0.30951773       0.50441426 </v>
   <v>       0.36388201       0.28141112       0.50436591 </v>
   <v>       0.39013352       0.30952985       0.50433188 </v>
   <v>       0.22365059       0.39278294       0.50440774 </v>
   <v>       0.19506625       0.44733803       0.50458173 </v>
   <v>       0.14113424       0.47451086       0.50481086 </v>
   <v>       0.11349854       0.44792003       0.50488989 </v>
   <v>       0.14106065       0.39369985       0.50445976 </v>
   <v>       0.19499756       0.36687562       0.50429005 </v>
   <v>       0.39277061       0.39277061       0.50437481 </v>
   <v>       0.36683492       0.44732440       0.50442888 </v>
   <v>       0.39362833       0.47447015       0.50469671 </v>
   <v>       0.44784900       0.44784900       0.50499336 </v>
   <v>       0.47447015       0.39362833       0.50469671 </v>
   <v>       0.44732440       0.36683492       0.50442888 </v>
   <v>       0.39278294       0.22365059       0.50440774 </v>
   <v>       0.44733803       0.19506625       0.50458173 </v>
   <v>       0.47451086       0.14113424       0.50481086 </v>
   <v>       0.44792003       0.11349854       0.50488989 </v>
   <v>       0.39369985       0.14106065       0.50445976 </v>
   <v>       0.36687562       0.19499756       0.50429005 </v>
   <v>       0.95018964       0.52963264       0.50418824 </v>
   <v>       0.05594464       0.47675144       0.50549521 </v>
   <v>       0.97956227       0.51538256       0.56410710 </v>
   <v>       0.95388738       0.52867890       0.62778219 </v>
   <v>       0.52963264       0.95018964       0.50418824 </v>
   <v>       0.47675144       0.05594464       0.50549521 </v>
   <v>       0.51538256       0.97956227       0.56410710 </v>
   <v>       0.52867890       0.95388738       0.62778219 </v>
   <v>       0.47662720       0.47662720       0.50556626 </v>
   <v>       0.02657054       0.49111612       0.44557524 </v>
   <v>       0.05214591       0.47812428       0.38183305 </v>
   <v>       0.49111612       0.02657054       0.44557524 </v>
   <v>       0.47812428       0.05214591       0.38183305 </v>
   <v>       0.49128298       0.49128298       0.44559489 </v>
   <v>       0.47846836       0.47846836       0.38188353 </v>
   <v>       0.63398071       0.48938958       0.50479367 </v>
   <v>       0.68145752       0.53632627       0.50525413 </v>
   <v>       0.48938958       0.63398071       0.50479367 </v>
   <v>       0.53632627       0.68145752       0.50525413 </v>
   <v>       0.53634200       0.79145804       0.50503944 </v>
   <v>       0.48944929       0.88585767       0.50471231 </v>
   <v>       0.68150671       0.79140932       0.50533580 </v>
   <v>       0.63409504       0.88578873       0.50511479 </v>
   <v>       0.79140932       0.68150671       0.50533580 </v>
   <v>       0.88578873       0.63409504       0.50511479 </v>
   <v>       0.88585767       0.48944929       0.50471231 </v>
   <v>       0.79145804       0.53634200       0.50503944 </v>
   <v>       0.71765613       0.57392187       0.50517147 </v>
   <v>       0.57392187       0.71765613       0.50517147 </v>
   <v>       0.71766229       0.71766229       0.50512324 </v>
   <v>       0.37215477       0.51674381       0.50481997 </v>
   <v>       0.32467840       0.46980383       0.50425833 </v>
   <v>       0.51674381       0.37215477       0.50481997 </v>
   <v>       0.46980383       0.32467840       0.50425833 </v>
   <v>       0.46979807       0.21476873       0.50456861 </v>
   <v>       0.51678161       0.12036893       0.50506462 </v>
   <v>       0.32472003       0.21464396       0.50407848 </v>
   <v>       0.37224087       0.12024039       0.50447516 </v>
   <v>       0.21464396       0.32472003       0.50407848 </v>
   <v>       0.12024039       0.37224087       0.50447516 </v>
   <v>       0.12036893       0.51678161       0.50506462 </v>
   <v>       0.21476873       0.46979807       0.50456861 </v>
   <v>       0.28849537       0.43221435       0.50432335 </v>
   <v>       0.43221435       0.28849537       0.50432335 </v>
   <v>       0.28847318       0.28847318       0.50449484 </v>
   <v>       0.51734450       0.51734450       0.44502484 </v>
   <v>       0.53855791       0.53855791       0.67896372 </v>
   <v>       0.03169350       0.48929507       0.56460178 </v>
   <v>       0.93234458       0.53980079       0.67912630 </v>
   <v>       0.48929507       0.03169350       0.56460178 </v>
   <v>       0.53980079       0.93234458       0.67912630 </v>
   <v>       0.48878590       0.48878590       0.56462790 </v>
   <v>       0.97443963       0.51715504       0.44509290 </v>
   <v>       0.07342934       0.46741053       0.33030456 </v>
   <v>       0.51715504       0.97443963       0.44509290 </v>
   <v>       0.46741053       0.07342934       0.33030456 </v>
   <v>       0.46780785       0.46780785       0.33037855 </v>
  </varray>
 </structure>
</modeling>
