<?xml version="1.0" encoding="ISO-8859-1"?>
<modeling>
 <generator>
  <i name="program" type="string">vasp </i>
  <i name="version" type="string">5.4.4.18Apr17-6-g9f103f2a35  </i>
  <i name="subversion" type="string">(build Jun 07 2020 16:50:00) complex            parallel </i>
  <i name="platform" type="string">LinuxIFC </i>
  <i name="date" type="string">2023 02 22 </i>
  <i name="time" type="string">04:00:34 </i>
 </generator>
 <incar>
  <i type="string" name="SYSTEM">Simulation for cell shape cell volume r</i>
  <i type="int" name="ISTART">     1</i>
  <i type="string" name="PREC">high</i>
  <i type="string" name="ALGO">48</i>
  <i type="int" name="ICHARG">    11</i>
  <i type="int" name="NELM">   200</i>
  <i type="int" name="IBRION">    -1</i>
  <i name="EDIFF">      0.00001000</i>
  <i name="EDIFFG">     -0.01000000</i>
  <i type="int" name="NSW">     0</i>
  <i type="int" name="ISIF">     2</i>
  <i name="ENCUT">    500.00000000</i>
  <i name="POTIM">      0.30000000</i>
  <i type="string" name="LREAL">A</i>
  <i type="int" name="ISMEAR">     0</i>
  <i name="SIGMA">      0.01000000</i>
  <i type="int" name="NWRITE">     0</i>
  <i type="logical" name="LWAVE"> F  </i>
  <i type="logical" name="LCHARG"> F  </i>
  <v type="int" name="KPOINT_BSE">    -1     0     0     0</v>
  <i type="int" name="NELM">   200</i>
  <i type="string" name="GGA">PE</i>
 </incar>
 <structure name="primitive_cell" >
  <crystal>
   <varray name="basis" >
    <v>      29.74384287      -0.00106351       0.00000000 </v>
    <v>      14.87100041      25.75945528       0.00000000 </v>
    <v>       0.00000000       0.00000000      20.00000000 </v>
   </varray>
   <i name="volume">  15324.02011281 </i>
   <varray name="rec_basis" >
    <v>       0.03361971      -0.01940875       0.00000000 </v>
    <v>       0.00000139       0.03881990       0.00000000 </v>
    <v>       0.00000000       0.00000000       0.05000000 </v>
   </varray>
  </crystal>
  <varray name="positions" >
   <v>      -0.02625170      -0.48194323       0.31822920 </v>
   <v>      -0.05276208      -0.46867810       0.36119646 </v>
   <v>      -0.07826076      -0.42637073       0.35756105 </v>
   <v>      -0.07824322      -0.48551446       0.35762044 </v>
   <v>      -0.02330473      -0.48337295       0.42593073 </v>
   <v>       0.05363991       0.47810616       0.38244763 </v>
   <v>       0.03057791       0.48967073       0.42828800 </v>
   <v>      -0.04865784      -0.47064326       0.48866227 </v>
   <v>       0.05534417       0.47732971       0.49069225 </v>
   <v>      -0.10636615      -0.44178897       0.49288742 </v>
   <v>      -0.02308908      -0.48337874      -0.45268888 </v>
   <v>      -0.13423852      -0.46824428       0.49433673 </v>
   <v>      -0.13424960      -0.38746757       0.49444067 </v>
   <v>      -0.11333182       0.48938629       0.49405577 </v>
   <v>      -0.11335225      -0.36599307       0.49423862 </v>
   <v>       0.02876155       0.49069382      -0.45129736 </v>
   <v>       0.11301597       0.44847701       0.49494277 </v>
   <v>       0.11996025      -0.48268942       0.49588868 </v>
   <v>       0.11993675       0.37270322       0.49601711 </v>
   <v>      -0.18828416      -0.44114202       0.49658087 </v>
   <v>      -0.18829634      -0.36055400       0.49667989 </v>
   <v>       0.14085555       0.39414965       0.49602124 </v>
   <v>       0.14087271       0.47494817       0.49596165 </v>
   <v>      -0.21703377      -0.38648128       0.49730010 </v>
   <v>      -0.20797977      -0.46368746       0.49786144 </v>
   <v>      -0.20801129      -0.31831503       0.49804061 </v>
   <v>       0.19491925       0.36722150       0.49722864 </v>
   <v>       0.19493531       0.44780204       0.49717247 </v>
   <v>      -0.27490768      -0.35755375       0.49821912 </v>
   <v>       0.22365523       0.39314547       0.49739316 </v>
   <v>       0.21464560       0.32497709       0.49791803 </v>
   <v>       0.21467702       0.47030444       0.49781595 </v>
   <v>      -0.28200163      -0.28200163       0.49790532 </v>
   <v>      -0.28200017      -0.42601690       0.49808994 </v>
   <v>      -0.30308413      -0.30308413       0.49820779 </v>
   <v>      -0.30308647      -0.38385228       0.49829952 </v>
   <v>       0.28153621       0.36420217       0.49758701 </v>
   <v>       0.28864298       0.28864298       0.49745107 </v>
   <v>       0.28865301       0.43265503       0.49751788 </v>
   <v>      -0.31835232      -0.46369191       0.49804307 </v>
   <v>      -0.31831503      -0.20801129       0.49804061 </v>
   <v>      -0.35755375      -0.27490768       0.49821912 </v>
   <v>      -0.35756067      -0.35756067       0.49828352 </v>
   <v>       0.30972528       0.30972528       0.49754518 </v>
   <v>       0.30972716       0.39049008       0.49757439 </v>
   <v>      -0.38385228      -0.30308647       0.49829952 </v>
   <v>      -0.36058938      -0.44116282       0.49669387 </v>
   <v>      -0.36055400      -0.18829634       0.49667989 </v>
   <v>      -0.38650126      -0.38650126       0.49737684 </v>
   <v>      -0.38648128      -0.21703377       0.49730010 </v>
   <v>       0.32497031       0.47030561       0.49790831 </v>
   <v>       0.32497709       0.21464560       0.49791803 </v>
   <v>       0.36420217       0.28153621       0.49758701 </v>
   <v>       0.36420189       0.36420189       0.49760721 </v>
   <v>      -0.42601690      -0.28200017       0.49808994 </v>
   <v>      -0.38752061      -0.46828382       0.49439160 </v>
   <v>      -0.38746757      -0.13424960       0.49444067 </v>
   <v>      -0.36605240       0.48934668       0.49413894 </v>
   <v>      -0.36599307      -0.11335225       0.49423862 </v>
   <v>       0.39049008       0.30972716       0.49757439 </v>
   <v>       0.36721085       0.44780004       0.49717935 </v>
   <v>       0.36722150       0.19491925       0.49722864 </v>
   <v>      -0.44114202      -0.18828416       0.49658087 </v>
   <v>      -0.44116282      -0.36058938       0.49669387 </v>
   <v>       0.39314547       0.22365523       0.49739316 </v>
   <v>       0.39314302       0.39314302       0.49739694 </v>
   <v>      -0.46368746      -0.20797977       0.49786144 </v>
   <v>      -0.46369191      -0.31835232       0.49804307 </v>
   <v>      -0.42629300      -0.48543092       0.35753900 </v>
   <v>      -0.42637073      -0.07826076       0.35756105 </v>
   <v>      -0.44184749      -0.44184749       0.49284889 </v>
   <v>      -0.44178897      -0.10636615       0.49288742 </v>
   <v>       0.43265503       0.28865301       0.49751788 </v>
   <v>       0.37269207      -0.48269675       0.49582421 </v>
   <v>       0.37270322       0.11993675       0.49601711 </v>
   <v>       0.39413028       0.47494180       0.49586332 </v>
   <v>       0.39414965       0.14085555       0.49602124 </v>
   <v>      -0.46828382      -0.38752061       0.49439160 </v>
   <v>      -0.46824428      -0.13423852       0.49433673 </v>
   <v>      -0.48543092      -0.42629300       0.35753900 </v>
   <v>      -0.48551446      -0.07824322       0.35762044 </v>
   <v>       0.44780204       0.19493531       0.49717247 </v>
   <v>       0.44780004       0.36721085       0.49717935 </v>
   <v>      -0.46860580      -0.46860580       0.36109338 </v>
   <v>      -0.46867810      -0.05276208       0.36119646 </v>
   <v>       0.47030444       0.21467702       0.49781595 </v>
   <v>       0.47030561       0.32497031       0.49790831 </v>
   <v>      -0.47070761      -0.47070761       0.48853845 </v>
   <v>      -0.47064326      -0.04865784       0.48866227 </v>
   <v>       0.48934668      -0.36605240       0.49413894 </v>
   <v>       0.48938629      -0.11333182       0.49405577 </v>
   <v>      -0.48184311      -0.48184311       0.31809286 </v>
   <v>      -0.48194323      -0.02625170       0.31822920 </v>
   <v>       0.44845312       0.44845312       0.49471812 </v>
   <v>       0.44847701       0.11301597       0.49494277 </v>
   <v>      -0.48336396      -0.48336396       0.42578625 </v>
   <v>      -0.48337295      -0.02330473       0.42593073 </v>
   <v>       0.47494180       0.39413028       0.49586332 </v>
   <v>       0.47494817       0.14087271       0.49596165 </v>
   <v>      -0.48337874      -0.02308908      -0.45268888 </v>
   <v>      -0.48352770      -0.48352770      -0.45284422 </v>
   <v>       0.47810616       0.05363991       0.38244763 </v>
   <v>       0.47817610       0.47817610       0.38219119 </v>
   <v>       0.47728561       0.47728561       0.49041677 </v>
   <v>       0.47732971       0.05534417       0.49069225 </v>
   <v>      -0.48269675       0.37269207       0.49582421 </v>
   <v>      -0.48268942       0.11996025       0.49588868 </v>
   <v>       0.48968848       0.48968848       0.42805481 </v>
   <v>       0.48967073       0.03057791       0.42828800 </v>
   <v>       0.49055293       0.49055293      -0.45154537 </v>
   <v>       0.49069382       0.02876155      -0.45129736 </v>
  </varray>
 </structure>
 <varray name="primitive_index" >
  <v type="int" >        1 </v>
  <v type="int" >       45 </v>
  <v type="int" >        2 </v>
  <v type="int" >        3 </v>
  <v type="int" >       43 </v>
  <v type="int" >       42 </v>
  <v type="int" >      105 </v>
  <v type="int" >       44 </v>
  <v type="int" >      104 </v>
  <v type="int" >       61 </v>
  <v type="int" >      106 </v>
  <v type="int" >       60 </v>
  <v type="int" >       62 </v>
  <v type="int" >        4 </v>
  <v type="int" >        6 </v>
  <v type="int" >      111 </v>
  <v type="int" >       85 </v>
  <v type="int" >       19 </v>
  <v type="int" >       21 </v>
  <v type="int" >       59 </v>
  <v type="int" >       63 </v>
  <v type="int" >       86 </v>
  <v type="int" >       84 </v>
  <v type="int" >       58 </v>
  <v type="int" >        5 </v>
  <v type="int" >        7 </v>
  <v type="int" >       87 </v>
  <v type="int" >       83 </v>
  <v type="int" >       46 </v>
  <v type="int" >       82 </v>
  <v type="int" >       22 </v>
  <v type="int" >       20 </v>
  <v type="int" >       17 </v>
  <v type="int" >       16 </v>
  <v type="int" >       51 </v>
  <v type="int" >       47 </v>
  <v type="int" >       70 </v>
  <v type="int" >       32 </v>
  <v type="int" >       31 </v>
  <v type="int" >       15 </v>
  <v type="int" >        8 </v>
  <v type="int" >       50 </v>
  <v type="int" >       48 </v>
  <v type="int" >       75 </v>
  <v type="int" >       71 </v>
  <v type="int" >       49 </v>
  <v type="int" >       53 </v>
  <v type="int" >       65 </v>
  <v type="int" >       52 </v>
  <v type="int" >       64 </v>
  <v type="int" >       30 </v>
  <v type="int" >       23 </v>
  <v type="int" >       74 </v>
  <v type="int" >       72 </v>
  <v type="int" >       18 </v>
  <v type="int" >       54 </v>
  <v type="int" >       66 </v>
  <v type="int" >       14 </v>
  <v type="int" >        9 </v>
  <v type="int" >       73 </v>
  <v type="int" >       77 </v>
  <v type="int" >       89 </v>
  <v type="int" >       69 </v>
  <v type="int" >       57 </v>
  <v type="int" >       88 </v>
  <v type="int" >       76 </v>
  <v type="int" >       10 </v>
  <v type="int" >       12 </v>
  <v type="int" >       36 </v>
  <v type="int" >       41 </v>
  <v type="int" >       55 </v>
  <v type="int" >       67 </v>
  <v type="int" >       33 </v>
  <v type="int" >       29 </v>
  <v type="int" >       24 </v>
  <v type="int" >       78 </v>
  <v type="int" >       90 </v>
  <v type="int" >       56 </v>
  <v type="int" >       68 </v>
  <v type="int" >       37 </v>
  <v type="int" >       40 </v>
  <v type="int" >       93 </v>
  <v type="int" >       81 </v>
  <v type="int" >       98 </v>
  <v type="int" >      103 </v>
  <v type="int" >       25 </v>
  <v type="int" >       27 </v>
  <v type="int" >       97 </v>
  <v type="int" >      102 </v>
  <v type="int" >       13 </v>
  <v type="int" >       11 </v>
  <v type="int" >       35 </v>
  <v type="int" >       39 </v>
  <v type="int" >       79 </v>
  <v type="int" >       91 </v>
  <v type="int" >       96 </v>
  <v type="int" >      101 </v>
  <v type="int" >       80 </v>
  <v type="int" >       92 </v>
  <v type="int" >      109 </v>
  <v type="int" >      107 </v>
  <v type="int" >       38 </v>
  <v type="int" >       34 </v>
  <v type="int" >       94 </v>
  <v type="int" >       99 </v>
  <v type="int" >       28 </v>
  <v type="int" >       26 </v>
  <v type="int" >       95 </v>
  <v type="int" >      100 </v>
  <v type="int" >      108 </v>
  <v type="int" >      110 </v>
 </varray>
 <kpoints>
  <generation param="listgenerated">
   <i name="divisions" type="int">      20 </i>
   <v>       0.00000000       0.00000000       0.00000000 </v>
   <v>       0.50000000       0.50000000       0.00000000 </v>
   <v>       0.33333333       0.66666667       0.00000000 </v>
   <v>       0.00000000       0.00000000       0.00000000 </v>
  </generation>
  <varray name="kpointlist" >
   <v>       0.00000000       0.00000000       0.00000000 </v>
   <v>       0.02631579       0.02631579       0.00000000 </v>
   <v>       0.05263158       0.05263158       0.00000000 </v>
   <v>       0.07894737       0.07894737       0.00000000 </v>
   <v>       0.10526316       0.10526316       0.00000000 </v>
   <v>       0.13157895       0.13157895       0.00000000 </v>
   <v>       0.15789474       0.15789474       0.00000000 </v>
   <v>       0.18421053       0.18421053       0.00000000 </v>
   <v>       0.21052632       0.21052632       0.00000000 </v>
   <v>       0.23684211       0.23684211       0.00000000 </v>
   <v>       0.26315789       0.26315789       0.00000000 </v>
   <v>       0.28947368       0.28947368       0.00000000 </v>
   <v>       0.31578947       0.31578947       0.00000000 </v>
   <v>       0.34210526       0.34210526       0.00000000 </v>
   <v>       0.36842105       0.36842105       0.00000000 </v>
   <v>       0.39473684       0.39473684       0.00000000 </v>
   <v>       0.42105263       0.42105263       0.00000000 </v>
   <v>       0.44736842       0.44736842       0.00000000 </v>
   <v>       0.47368421       0.47368421       0.00000000 </v>
   <v>       0.50000000       0.50000000       0.00000000 </v>
   <v>       0.50000000       0.50000000       0.00000000 </v>
   <v>       0.49122807       0.50877193       0.00000000 </v>
   <v>       0.48245614       0.51754386       0.00000000 </v>
   <v>       0.47368421       0.52631579       0.00000000 </v>
   <v>       0.46491228       0.53508772       0.00000000 </v>
   <v>       0.45614035       0.54385965       0.00000000 </v>
   <v>       0.44736842       0.55263158       0.00000000 </v>
   <v>       0.43859649       0.56140351       0.00000000 </v>
   <v>       0.42982456       0.57017544       0.00000000 </v>
   <v>       0.42105263       0.57894737       0.00000000 </v>
   <v>       0.41228070       0.58771930       0.00000000 </v>
   <v>       0.40350877       0.59649123       0.00000000 </v>
   <v>       0.39473684       0.60526316       0.00000000 </v>
   <v>       0.38596491       0.61403509       0.00000000 </v>
   <v>       0.37719298       0.62280702       0.00000000 </v>
   <v>       0.36842105       0.63157895       0.00000000 </v>
   <v>       0.35964912       0.64035088       0.00000000 </v>
   <v>       0.35087719       0.64912281       0.00000000 </v>
   <v>       0.34210526       0.65789474       0.00000000 </v>
   <v>       0.33333333       0.66666667       0.00000000 </v>
   <v>       0.33333333       0.66666667       0.00000000 </v>
   <v>       0.31578947       0.63157895       0.00000000 </v>
   <v>       0.29824561       0.59649123       0.00000000 </v>
   <v>       0.28070175       0.56140351       0.00000000 </v>
   <v>       0.26315789       0.52631579       0.00000000 </v>
   <v>       0.24561404       0.49122807       0.00000000 </v>
   <v>       0.22807018       0.45614035       0.00000000 </v>
   <v>       0.21052632       0.42105263       0.00000000 </v>
   <v>       0.19298246       0.38596491       0.00000000 </v>
   <v>       0.17543860       0.35087719       0.00000000 </v>
   <v>       0.15789474       0.31578947       0.00000000 </v>
   <v>       0.14035088       0.28070175       0.00000000 </v>
   <v>       0.12280702       0.24561404       0.00000000 </v>
   <v>       0.10526316       0.21052632       0.00000000 </v>
   <v>       0.08771930       0.17543860       0.00000000 </v>
   <v>       0.07017544       0.14035088       0.00000000 </v>
   <v>       0.05263158       0.10526316       0.00000000 </v>
   <v>       0.03508772       0.07017544       0.00000000 </v>
   <v>       0.01754386       0.03508772       0.00000000 </v>
   <v>       0.00000000       0.00000000       0.00000000 </v>
  </varray>
  <varray name="weights" >
   <v>       0.01666667 </v>
   <v>       0.01666667 </v>
   <v>       0.01666667 </v>
   <v>       0.01666667 </v>
   <v>       0.01666667 </v>
   <v>       0.01666667 </v>
   <v>       0.01666667 </v>
   <v>       0.01666667 </v>
   <v>       0.01666667 </v>
   <v>       0.01666667 </v>
   <v>       0.01666667 </v>
   <v>       0.01666667 </v>
   <v>       0.01666667 </v>
   <v>       0.01666667 </v>
   <v>       0.01666667 </v>
   <v>       0.01666667 </v>
   <v>       0.01666667 </v>
   <v>       0.01666667 </v>
   <v>       0.01666667 </v>
   <v>       0.01666667 </v>
   <v>       0.01666667 </v>
   <v>       0.01666667 </v>
   <v>       0.01666667 </v>
   <v>       0.01666667 </v>
   <v>       0.01666667 </v>
   <v>       0.01666667 </v>
   <v>       0.01666667 </v>
   <v>       0.01666667 </v>
   <v>       0.01666667 </v>
   <v>       0.01666667 </v>
   <v>       0.01666667 </v>
   <v>       0.01666667 </v>
   <v>       0.01666667 </v>
   <v>       0.01666667 </v>
   <v>       0.01666667 </v>
   <v>       0.01666667 </v>
   <v>       0.01666667 </v>
   <v>       0.01666667 </v>
   <v>       0.01666667 </v>
   <v>       0.01666667 </v>
   <v>       0.01666667 </v>
   <v>       0.01666667 </v>
   <v>       0.01666667 </v>
   <v>       0.01666667 </v>
   <v>       0.01666667 </v>
   <v>       0.01666667 </v>
   <v>       0.01666667 </v>
   <v>       0.01666667 </v>
   <v>       0.01666667 </v>
   <v>       0.01666667 </v>
   <v>       0.01666667 </v>
   <v>       0.01666667 </v>
   <v>       0.01666667 </v>
   <v>       0.01666667 </v>
   <v>       0.01666667 </v>
   <v>       0.01666667 </v>
   <v>       0.01666667 </v>
   <v>       0.01666667 </v>
   <v>       0.01666667 </v>
   <v>       0.01666667 </v>
  </varray>
 </kpoints>
 <parameters>
  <separator name="general" >
   <i type="string" name="SYSTEM">Simulation for cell shape cell volume r</i>
   <i type="logical" name="LCOMPAT"> F  </i>
  </separator>
  <separator name="electronic" >
   <i type="string" name="PREC">high</i>
   <i name="ENMAX">    500.00000000</i>
   <i name="ENAUG">    644.87300000</i>
   <i name="EDIFF">      0.00001000</i>
   <i type="int" name="IALGO">    38</i>
   <i type="int" name="IWAVPR">    10</i>
   <i type="int" name="NBANDS">   224</i>
   <i name="NELECT">    324.00000000</i>
   <i type="int" name="TURBO">     0</i>
   <i type="int" name="IRESTART">     0</i>
   <i type="int" name="NREBOOT">     0</i>
   <i type="int" name="NMIN">     0</i>
   <i name="EREF">      0.00000000</i>
   <separator name="electronic smearing" >
    <i type="int" name="ISMEAR">     0</i>
    <i name="SIGMA">      0.01000000</i>
    <i name="KSPACING">      0.50000000</i>
    <i type="logical" name="KGAMMA"> T  </i>
   </separator>
   <separator name="electronic projectors" >
    <i type="logical" name="LREAL"> T  </i>
    <v name="ROPT">     -0.00040000     -0.00040000     -0.00040000</v>
    <i type="int" name="LMAXPAW">  -100</i>
    <i type="int" name="LMAXMIX">     2</i>
    <i type="logical" name="NLSPLINE"> F  </i>
   </separator>
   <separator name="electronic startup" >
    <i type="int" name="ISTART">     1</i>
    <i type="int" name="ICHARG">    11</i>
    <i type="int" name="INIWAV">     1</i>
   </separator>
   <separator name="electronic spin" >
    <i type="int" name="ISPIN">     1</i>
    <i type="logical" name="LNONCOLLINEAR"> F  </i>
    <v name="MAGMOM">      1.00000000      1.00000000      1.00000000      1.00000000      1.00000000      1.00000000      1.00000000      1.00000000      1.00000000      1.00000000      1.00000000      1.00000000      1.00000000      1.00000000      1.00000000      1.00000000      1.00000000      1.00000000      1.00000000      1.00000000
      1.00000000      1.00000000      1.00000000      1.00000000      1.00000000      1.00000000      1.00000000      1.00000000      1.00000000      1.00000000      1.00000000      1.00000000      1.00000000      1.00000000      1.00000000      1.00000000      1.00000000      1.00000000      1.00000000      1.00000000
      1.00000000      1.00000000      1.00000000      1.00000000      1.00000000      1.00000000      1.00000000      1.00000000      1.00000000      1.00000000      1.00000000      1.00000000      1.00000000      1.00000000      1.00000000      1.00000000      1.00000000      1.00000000      1.00000000      1.00000000
      1.00000000      1.00000000      1.00000000      1.00000000      1.00000000      1.00000000      1.00000000      1.00000000      1.00000000      1.00000000      1.00000000      1.00000000      1.00000000      1.00000000      1.00000000      1.00000000      1.00000000      1.00000000      1.00000000      1.00000000
      1.00000000      1.00000000      1.00000000      1.00000000      1.00000000      1.00000000      1.00000000      1.00000000      1.00000000      1.00000000      1.00000000      1.00000000      1.00000000      1.00000000      1.00000000      1.00000000      1.00000000      1.00000000      1.00000000      1.00000000
      1.00000000      1.00000000      1.00000000      1.00000000      1.00000000      1.00000000      1.00000000      1.00000000      1.00000000      1.00000000      1.00000000</v>
    <i name="NUPDOWN">     -1.00000000</i>
    <i type="logical" name="LSORBIT"> F  </i>
    <v name="SAXIS">      0.00000000      0.00000000      1.00000000</v>
    <i type="logical" name="LSPIRAL"> F  </i>
    <v name="QSPIRAL">      0.00000000      0.00000000      0.00000000</v>
    <i type="logical" name="LZEROZ"> F  </i>
   </separator>
   <separator name="electronic exchange-correlation" >
    <i type="logical" name="LASPH"> F  </i>
    <i type="logical" name="LMETAGGA"> F  </i>
   </separator>
   <separator name="electronic convergence" >
    <i type="int" name="NELM">   200</i>
    <i type="int" name="NELMDL">     0</i>
    <i type="int" name="NELMIN">     2</i>
    <i name="ENINI">    500.00000000</i>
    <separator name="electronic convergence detail" >
     <i type="logical" name="LDIAG"> T  </i>
     <i type="logical" name="LSUBROT"> F  </i>
     <i name="WEIMIN">      0.00000000</i>
     <i name="EBREAK">      0.00000001</i>
     <i name="DEPER">      0.30000000</i>
     <i type="int" name="NRMM">     4</i>
     <i name="TIME">      0.40000000</i>
    </separator>
   </separator>
   <separator name="electronic mixer" >
    <i name="AMIX">      0.40000000</i>
    <i name="BMIX">      1.00000000</i>
    <i name="AMIN">      0.10000000</i>
    <i name="AMIX_MAG">      1.60000000</i>
    <i name="BMIX_MAG">      1.00000000</i>
    <separator name="electronic mixer details" >
     <i type="int" name="IMIX">     4</i>
     <i type="logical" name="MIXFIRST"> F  </i>
     <i type="int" name="MAXMIX">   -45</i>
     <i name="WC">    100.00000000</i>
     <i type="int" name="INIMIX">     1</i>
     <i type="int" name="MIXPRE">     1</i>
     <i type="int" name="MREMOVE">     5</i>
    </separator>
   </separator>
   <separator name="electronic dipolcorrection" >
    <i type="logical" name="LDIPOL"> F  </i>
    <i type="logical" name="LMONO"> F  </i>
    <i type="int" name="IDIPOL">     0</i>
    <i name="EPSILON">      1.00000000</i>
    <v name="DIPOL">   -100.00000000   -100.00000000   -100.00000000</v>
    <i name="EFIELD">      0.00000000</i>
   </separator>
  </separator>
  <separator name="grids" >
   <i type="int" name="NGX">   224</i>
   <i type="int" name="NGY">   224</i>
   <i type="int" name="NGZ">   150</i>
   <i type="int" name="NGXF">   336</i>
   <i type="int" name="NGYF">   336</i>
   <i type="int" name="NGZF">   224</i>
   <i type="logical" name="ADDGRID"> F  </i>
  </separator>
  <separator name="ionic" >
   <i type="int" name="NSW">     0</i>
   <i type="int" name="IBRION">    -1</i>
   <i type="int" name="MDALGO">     0</i>
   <i type="int" name="ISIF">     2</i>
   <i name="PSTRESS">      0.00000000</i>
   <i name="EDIFFG">     -0.01000000</i>
   <i type="int" name="NFREE">     0</i>
   <i name="POTIM">      0.30000000</i>
   <i name="SMASS">     -3.00000000</i>
   <i name="SCALEE">      1.00000000</i>
  </separator>
  <separator name="ionic md" >
   <i name="TEBEG">      0.00010000</i>
   <i name="TEEND">      0.00010000</i>
   <i type="int" name="NBLOCK">     1</i>
   <i type="int" name="KBLOCK">     1</i>
   <i type="int" name="NPACO">   256</i>
   <i name="APACO">     16.00000000</i>
  </separator>
  <separator name="symmetry" >
   <i type="int" name="ISYM">     2</i>
   <i name="SYMPREC">      0.00001000</i>
  </separator>
  <separator name="dos" >
   <i type="int" name="LORBIT">     0</i>
   <v name="RWIGS">     -1.00000000     -1.00000000     -1.00000000</v>
   <i type="int" name="NEDOS">   301</i>
   <i name="EMIN">     10.00000000</i>
   <i name="EMAX">    -10.00000000</i>
   <i name="EFERMI">      0.00000000</i>
  </separator>
  <separator name="writing" >
   <i type="int" name="NWRITE">     0</i>
   <i type="logical" name="LWAVE"> F  </i>
   <i type="logical" name="LDOWNSAMPLE"> F  </i>
   <i type="logical" name="LCHARG"> F  </i>
   <i type="logical" name="LPARD"> F  </i>
   <i type="logical" name="LVTOT"> F  </i>
   <i type="logical" name="LVHAR"> F  </i>
   <i type="logical" name="LELF"> F  </i>
   <i type="logical" name="LOPTICS"> F  </i>
   <v name="STM">      0.00000000      0.00000000      0.00000000      0.00000000      0.00000000      0.00000000      0.00000000</v>
  </separator>
  <separator name="performance" >
   <i type="int" name="NPAR">    16</i>
   <i type="int" name="NSIM">     4</i>
   <i type="int" name="NBLK">    -1</i>
   <i type="logical" name="LPLANE"> T  </i>
   <i type="logical" name="LSCALAPACK"> T  </i>
   <i type="logical" name="LSCAAWARE"> F  </i>
   <i type="logical" name="LSCALU"> F  </i>
   <i type="logical" name="LASYNC"> F  </i>
   <i type="logical" name="LORBITALREAL"> F  </i>
  </separator>
  <separator name="miscellaneous" >
   <i type="int" name="IDIOT">     3</i>
   <i type="int" name="ISPECIAL">     0</i>
   <i type="logical" name="LMUSIC"> F  </i>
   <v name="POMASS">      1.00000000     12.01100000     14.00100000</v>
   <v name="DARWINR">      0.00000000      0.00000000      0.00000000</v>
   <v name="DARWINV">      1.00000000      1.00000000      1.00000000</v>
   <i type="logical" name="LCORR"> T  </i>
  </separator>
  <i type="logical" name="GGA_COMPAT"> T  </i>
  <i type="logical" name="LBERRY"> F  </i>
  <i type="int" name="ICORELEVEL">     0</i>
  <i type="logical" name="LDAU"> F  </i>
  <i type="int" name="I_CONSTRAINED_M">     0</i>
  <separator name="electronic exchange-correlation" >
   <i type="string" name="GGA">PE</i>
   <i type="int" name="VOSKOWN">     0</i>
   <i type="logical" name="LHFCALC"> F  </i>
   <i type="string" name="PRECFOCK"></i>
   <i type="logical" name="LSYMGRAD"> F  </i>
   <i type="logical" name="LHFONE"> F  </i>
   <i type="logical" name="LRHFCALC"> F  </i>
   <i type="logical" name="LTHOMAS"> F  </i>
   <i type="logical" name="LMODELHF"> F  </i>
   <i name="ENCUT4O">     -1.00000000</i>
   <i type="int" name="EXXOEP">     0</i>
   <i type="int" name="FOURORBIT">     0</i>
   <i name="AEXX">      0.00000000</i>
   <i name="HFALPHA">      0.00000000</i>
   <i name="MCALPHA">      0.00000000</i>
   <i name="ALDAX">      1.00000000</i>
   <i name="AGGAX">      1.00000000</i>
   <i name="ALDAC">      1.00000000</i>
   <i name="AGGAC">      1.00000000</i>
   <i type="int" name="NKREDX">     1</i>
   <i type="int" name="NKREDY">     1</i>
   <i type="int" name="NKREDZ">     1</i>
   <i type="logical" name="SHIFTRED"> F  </i>
   <i type="logical" name="ODDONLY"> F  </i>
   <i type="logical" name="EVENONLY"> F  </i>
   <i type="int" name="LMAXFOCK">     0</i>
   <i type="int" name="NMAXFOCKAE">     0</i>
   <i type="logical" name="LFOCKAEDFT"> F  </i>
   <i name="HFSCREEN">      0.00000000</i>
   <i name="HFSCREENC">      0.00000000</i>
   <i type="int" name="NBANDSGWLOW">     0</i>
  </separator>
  <separator name="vdW DFT" >
   <i type="logical" name="LUSE_VDW"> F  </i>
   <i name="Zab_VDW">     -0.84910000</i>
   <i name="PARAM1">      0.12340000</i>
   <i name="PARAM2">      1.00000000</i>
   <i name="PARAM3">      0.00000000</i>
  </separator>
  <separator name="model GW" >
   <i type="int" name="MODEL_GW">     0</i>
   <i name="MODEL_EPS0">     82.83254115</i>
   <i name="MODEL_ALPHA">      1.00000000</i>
  </separator>
  <separator name="linear response parameters" >
   <i type="logical" name="LEPSILON"> F  </i>
   <i type="logical" name="LRPA"> F  </i>
   <i type="logical" name="LNABLA"> F  </i>
   <i type="logical" name="LVEL"> F  </i>
   <i type="int" name="KINTER">     0</i>
   <i name="CSHIFT">      0.10000000</i>
   <i name="OMEGAMAX">     -1.00000000</i>
   <i name="DEG_THRESHOLD">      0.00200000</i>
   <i name="RTIME">     -0.10000000</i>
   <i name="WPLASMAI">      0.00000000</i>
   <v name="DFIELD">      0.00000000      0.00000000      0.00000000</v>
   <v name="WPLASMA">      0.00000000      0.00000000      0.00000000      0.00000000      0.00000000      0.00000000      0.00000000      0.00000000      0.00000000</v>
  </separator>
  <separator name="orbital magnetization" >
   <i type="logical" name="NUCIND"> F  </i>
   <v name="MAGPOS">      0.00000000      0.00000000      0.00000000</v>
   <i type="logical" name="LNICSALL"> T  </i>
   <i type="logical" name="ORBITALMAG"> F  </i>
   <i type="logical" name="LMAGBLOCH"> F  </i>
   <i type="logical" name="LCHIMAG"> F  </i>
   <i type="logical" name="LGAUGE"> T  </i>
   <i type="int" name="MAGATOM">     0</i>
   <v name="MAGDIPOL">      0.00000000      0.00000000      0.00000000</v>
   <v name="AVECCONST">      0.00000000      0.00000000      0.00000000</v>
  </separator>
  <separator name="response functions" >
   <i type="logical" name="LADDER"> F  </i>
   <i type="logical" name="LRPAFORCE"> F  </i>
   <i type="logical" name="LFXC"> F  </i>
   <i type="logical" name="LHARTREE"> T  </i>
   <i type="int" name="IBSE">     0</i>
   <v type="int" name="KPOINT">    -1     0     0     0</v>
   <i type="logical" name="LTCTE"> F  </i>
   <i type="logical" name="LTETE"> F  </i>
   <i type="logical" name="LTRIPLET"> F  </i>
   <i type="logical" name="LFXCEPS"> F  </i>
   <i type="logical" name="LFXHEG"> F  </i>
   <i type="int" name="NATURALO">     2</i>
   <i type="logical" name="L2ORDER"> F  </i>
   <i type="logical" name="LMP2LT"> F  </i>
   <i type="logical" name="LUSEW"> F  </i>
   <i name="ENCUTGW">     -2.00000000</i>
   <i name="ENCUTGWSOFT">     -2.00000000</i>
   <i name="ENCUTLF">     -1.00000000</i>
   <i type="int" name="LMAXMP2">    -1</i>
   <i name="SCISSOR">      0.00000000</i>
   <i type="int" name="NOMEGA">     0</i>
   <i type="int" name="NOMEGAR">     0</i>
   <i type="int" name="NBANDSGW">    -1</i>
   <i type="int" name="NBANDSO">    -1</i>
   <i type="int" name="NBANDSV">    -1</i>
   <i type="int" name="NELM">   200</i>
   <i type="int" name="NELMHF">     1</i>
   <i type="int" name="DIM">     3</i>
   <i type="int" name="ANTIRES">     0</i>
   <i name="OMEGAMAX">    -30.00000000</i>
   <i name="OMEGAMIN">    -30.00000000</i>
   <i name="OMEGATL">   -200.00000000</i>
   <i type="int" name="OMEGAGRID">   140</i>
   <i name="CSHIFT">     -0.10000000</i>
   <i type="logical" name="SELFENERGY"> F  </i>
   <i type="logical" name="LSPECTRAL"> F  </i>
   <i type="logical" name="LSPECTRALGW"> F  </i>
   <i type="logical" name="LSINGLES"> F  </i>
   <i type="logical" name="LFERMIGW"> F  </i>
   <i type="logical" name="ODDONLYGW"> F  </i>
   <i type="logical" name="EVENONLYGW"> F  </i>
   <i type="int" name="NKREDLFX">     1</i>
   <i type="int" name="NKREDLFY">     1</i>
   <i type="int" name="NKREDLFZ">     1</i>
   <i type="int" name="MAXMEM">  2800</i>
   <i type="int" name="TELESCOPE">     0</i>
   <i type="int" name="TAUPAR">     1</i>
   <i type="int" name="OMEGAPAR">    -1</i>
   <i name="LAMBDA">      1.00000000</i>
  </separator>
  <separator name="External order field" >
   <i name="OFIELD_KAPPA">      0.00000000</i>
   <v name="OFIELD_K">      0.00000000      0.00000000      0.00000000</v>
   <i name="OFIELD_Q6_NEAR">      0.00000000</i>
   <i name="OFIELD_Q6_FAR">      0.00000000</i>
   <i name="OFIELD_A">      0.00000000</i>
  </separator>
  <separator name="solvation model" >
   <i type="logical" name="LSOL"> F  </i>
  </separator>
 </parameters>
 <atominfo>
  <atoms>     111 </atoms>
  <types>       3 </types>
  <array name="atoms" >
   <dimension dim="1">ion</dimension>
   <field type="string">element</field>
   <field type="int">atomtype</field>
   <set>
    <rc><c>H </c><c>   1</c></rc>
    <rc><c>H </c><c>   1</c></rc>
    <rc><c>H </c><c>   1</c></rc>
    <rc><c>H </c><c>   1</c></rc>
    <rc><c>H </c><c>   1</c></rc>
    <rc><c>H </c><c>   1</c></rc>
    <rc><c>H </c><c>   1</c></rc>
    <rc><c>H </c><c>   1</c></rc>
    <rc><c>H </c><c>   1</c></rc>
    <rc><c>H </c><c>   1</c></rc>
    <rc><c>H </c><c>   1</c></rc>
    <rc><c>H </c><c>   1</c></rc>
    <rc><c>H </c><c>   1</c></rc>
    <rc><c>H </c><c>   1</c></rc>
    <rc><c>H </c><c>   1</c></rc>
    <rc><c>H </c><c>   1</c></rc>
    <rc><c>H </c><c>   1</c></rc>
    <rc><c>H </c><c>   1</c></rc>
    <rc><c>H </c><c>   1</c></rc>
    <rc><c>H </c><c>   1</c></rc>
    <rc><c>H </c><c>   1</c></rc>
    <rc><c>H </c><c>   1</c></rc>
    <rc><c>H </c><c>   1</c></rc>
    <rc><c>H </c><c>   1</c></rc>
    <rc><c>H </c><c>   1</c></rc>
    <rc><c>H </c><c>   1</c></rc>
    <rc><c>H </c><c>   1</c></rc>
    <rc><c>H </c><c>   1</c></rc>
    <rc><c>H </c><c>   1</c></rc>
    <rc><c>H </c><c>   1</c></rc>
    <rc><c>H </c><c>   1</c></rc>
    <rc><c>H </c><c>   1</c></rc>
    <rc><c>H </c><c>   1</c></rc>
    <rc><c>H </c><c>   1</c></rc>
    <rc><c>H </c><c>   1</c></rc>
    <rc><c>H </c><c>   1</c></rc>
    <rc><c>H </c><c>   1</c></rc>
    <rc><c>H </c><c>   1</c></rc>
    <rc><c>H </c><c>   1</c></rc>
    <rc><c>H </c><c>   1</c></rc>
    <rc><c>H </c><c>   1</c></rc>
    <rc><c>H </c><c>   1</c></rc>
    <rc><c>C </c><c>   2</c></rc>
    <rc><c>C </c><c>   2</c></rc>
    <rc><c>C </c><c>   2</c></rc>
    <rc><c>C </c><c>   2</c></rc>
    <rc><c>C </c><c>   2</c></rc>
    <rc><c>C </c><c>   2</c></rc>
    <rc><c>C </c><c>   2</c></rc>
    <rc><c>C </c><c>   2</c></rc>
    <rc><c>C </c><c>   2</c></rc>
    <rc><c>C </c><c>   2</c></rc>
    <rc><c>C </c><c>   2</c></rc>
    <rc><c>C </c><c>   2</c></rc>
    <rc><c>C </c><c>   2</c></rc>
    <rc><c>C </c><c>   2</c></rc>
    <rc><c>C </c><c>   2</c></rc>
    <rc><c>C </c><c>   2</c></rc>
    <rc><c>C </c><c>   2</c></rc>
    <rc><c>C </c><c>   2</c></rc>
    <rc><c>C </c><c>   2</c></rc>
    <rc><c>C </c><c>   2</c></rc>
    <rc><c>C </c><c>   2</c></rc>
    <rc><c>C </c><c>   2</c></rc>
    <rc><c>C </c><c>   2</c></rc>
    <rc><c>C </c><c>   2</c></rc>
    <rc><c>C </c><c>   2</c></rc>
    <rc><c>C </c><c>   2</c></rc>
    <rc><c>C </c><c>   2</c></rc>
    <rc><c>C </c><c>   2</c></rc>
    <rc><c>C </c><c>   2</c></rc>
    <rc><c>C </c><c>   2</c></rc>
    <rc><c>C </c><c>   2</c></rc>
    <rc><c>C </c><c>   2</c></rc>
    <rc><c>C </c><c>   2</c></rc>
    <rc><c>C </c><c>   2</c></rc>
    <rc><c>C </c><c>   2</c></rc>
    <rc><c>C </c><c>   2</c></rc>
    <rc><c>C </c><c>   2</c></rc>
    <rc><c>C </c><c>   2</c></rc>
    <rc><c>C </c><c>   2</c></rc>
    <rc><c>C </c><c>   2</c></rc>
    <rc><c>C </c><c>   2</c></rc>
    <rc><c>C </c><c>   2</c></rc>
    <rc><c>C </c><c>   2</c></rc>
    <rc><c>C </c><c>   2</c></rc>
    <rc><c>C </c><c>   2</c></rc>
    <rc><c>C </c><c>   2</c></rc>
    <rc><c>C </c><c>   2</c></rc>
    <rc><c>C </c><c>   2</c></rc>
    <rc><c>C </c><c>   2</c></rc>
    <rc><c>C </c><c>   2</c></rc>
    <rc><c>C </c><c>   2</c></rc>
    <rc><c>C </c><c>   2</c></rc>
    <rc><c>C </c><c>   2</c></rc>
    <rc><c>C </c><c>   2</c></rc>
    <rc><c>C </c><c>   2</c></rc>
    <rc><c>C </c><c>   2</c></rc>
    <rc><c>C </c><c>   2</c></rc>
    <rc><c>C </c><c>   2</c></rc>
    <rc><c>C </c><c>   2</c></rc>
    <rc><c>C </c><c>   2</c></rc>
    <rc><c>C </c><c>   2</c></rc>
    <rc><c>C </c><c>   2</c></rc>
    <rc><c>C </c><c>   2</c></rc>
    <rc><c>N </c><c>   3</c></rc>
    <rc><c>N </c><c>   3</c></rc>
    <rc><c>N </c><c>   3</c></rc>
    <rc><c>N </c><c>   3</c></rc>
    <rc><c>N </c><c>   3</c></rc>
    <rc><c>N </c><c>   3</c></rc>
   </set>
  </array>
  <array name="atomtypes" >
   <dimension dim="1">type</dimension>
   <field type="int">atomspertype</field>
   <field type="string">element</field>
   <field>mass</field>
   <field>valence</field>
   <field type="string">pseudopotential</field>
   <set>
    <rc><c>  42</c><c>H </c><c>      1.00000000</c><c>      1.00000000</c><c>  PAW_PBE H 15Jun2001                   </c></rc>
    <rc><c>  63</c><c>C </c><c>     12.01100000</c><c>      4.00000000</c><c>  PAW_PBE C 08Apr2002                   </c></rc>
    <rc><c>   6</c><c>N </c><c>     14.00100000</c><c>      5.00000000</c><c>  PAW_PBE N 08Apr2002                   </c></rc>
   </set>
  </array>
 </atominfo>
 <structure name="initialpos" >
  <crystal>
   <varray name="basis" >
    <v>      29.74384287      -0.00106351       0.00000000 </v>
    <v>      14.87100041      25.75945528       0.00000000 </v>
    <v>       0.00000000       0.00000000      20.00000000 </v>
   </varray>
   <i name="volume">  15324.02011281 </i>
   <varray name="rec_basis" >
    <v>       0.03361971      -0.01940875       0.00000000 </v>
    <v>       0.00000139       0.03881990       0.00000000 </v>
    <v>       0.00000000       0.00000000       0.05000000 </v>
   </varray>
  </crystal>
  <varray name="positions" >
   <v>       0.97374830       0.51805677       0.31822920 </v>
   <v>       0.92173924       0.57362927       0.35756105 </v>
   <v>       0.92175678       0.51448554       0.35762044 </v>
   <v>       0.88666818       0.48938629       0.49405577 </v>
   <v>       0.79202023       0.53631254       0.49786144 </v>
   <v>       0.88664775       0.63400693       0.49423862 </v>
   <v>       0.79198871       0.68168497       0.49804061 </v>
   <v>       0.68168497       0.79198871       0.49804061 </v>
   <v>       0.63400693       0.88664775       0.49423862 </v>
   <v>       0.53631254       0.79202023       0.49786144 </v>
   <v>       0.48938629       0.88666818       0.49405577 </v>
   <v>       0.53630809       0.68164768       0.49804307 </v>
   <v>       0.48934668       0.63394760       0.49413894 </v>
   <v>       0.63394760       0.48934668       0.49413894 </v>
   <v>       0.68164768       0.53630809       0.49804307 </v>
   <v>       0.71799983       0.57398310       0.49808994 </v>
   <v>       0.71799837       0.71799837       0.49790532 </v>
   <v>       0.57398310       0.71799983       0.49808994 </v>
   <v>       0.11996025       0.51731058       0.49588868 </v>
   <v>       0.21467702       0.47030444       0.49781595 </v>
   <v>       0.11993675       0.37270322       0.49601711 </v>
   <v>       0.21464560       0.32497709       0.49791803 </v>
   <v>       0.32497709       0.21464560       0.49791803 </v>
   <v>       0.37270322       0.11993675       0.49601711 </v>
   <v>       0.47030444       0.21467702       0.49781595 </v>
   <v>       0.51731058       0.11996025       0.49588868 </v>
   <v>       0.47030561       0.32497031       0.49790831 </v>
   <v>       0.51730325       0.37269207       0.49582421 </v>
   <v>       0.37269207       0.51730325       0.49582421 </v>
   <v>       0.32497031       0.47030561       0.49790831 </v>
   <v>       0.28865301       0.43265503       0.49751788 </v>
   <v>       0.28864298       0.28864298       0.49745107 </v>
   <v>       0.43265503       0.28865301       0.49751788 </v>
   <v>       0.47817610       0.47817610       0.38219119 </v>
   <v>       0.51815689       0.51815689       0.31809286 </v>
   <v>       0.57370700       0.51456908       0.35753900 </v>
   <v>       0.51456908       0.57370700       0.35753900 </v>
   <v>       0.47810616       0.05363991       0.38244763 </v>
   <v>       0.51805677       0.97374830       0.31822920 </v>
   <v>       0.51448554       0.92175678       0.35762044 </v>
   <v>       0.57362927       0.92173924       0.35756105 </v>
   <v>       0.05363991       0.47810616       0.38244763 </v>
   <v>       0.97669527       0.51662705       0.42593073 </v>
   <v>       0.95134216       0.52935674       0.48866227 </v>
   <v>       0.94723792       0.53132190       0.36119646 </v>
   <v>       0.72509232       0.64244625       0.49821912 </v>
   <v>       0.69691353       0.61614772       0.49829952 </v>
   <v>       0.64243933       0.64243933       0.49828352 </v>
   <v>       0.61614772       0.69691353       0.49829952 </v>
   <v>       0.64244625       0.72509232       0.49821912 </v>
   <v>       0.69691587       0.69691587       0.49820779 </v>
   <v>       0.61349874       0.61349874       0.49737684 </v>
   <v>       0.63941062       0.55883718       0.49669387 </v>
   <v>       0.61247939       0.53171618       0.49439160 </v>
   <v>       0.55815251       0.55815251       0.49284889 </v>
   <v>       0.53171618       0.61247939       0.49439160 </v>
   <v>       0.55883718       0.63941062       0.49669387 </v>
   <v>       0.78296623       0.61351872       0.49730010 </v>
   <v>       0.81171584       0.55885798       0.49658087 </v>
   <v>       0.86576148       0.53175572       0.49433673 </v>
   <v>       0.89363385       0.55821103       0.49288742 </v>
   <v>       0.86575040       0.61253243       0.49444067 </v>
   <v>       0.81170366       0.63944600       0.49667989 </v>
   <v>       0.61351872       0.78296623       0.49730010 </v>
   <v>       0.63944600       0.81170366       0.49667989 </v>
   <v>       0.61253243       0.86575040       0.49444067 </v>
   <v>       0.55821103       0.89363385       0.49288742 </v>
   <v>       0.53175572       0.86576148       0.49433673 </v>
   <v>       0.55885798       0.81171584       0.49658087 </v>
   <v>       0.28153621       0.36420217       0.49758701 </v>
   <v>       0.30972716       0.39049008       0.49757439 </v>
   <v>       0.36420189       0.36420189       0.49760721 </v>
   <v>       0.39049008       0.30972716       0.49757439 </v>
   <v>       0.36420217       0.28153621       0.49758701 </v>
   <v>       0.30972528       0.30972528       0.49754518 </v>
   <v>       0.39314302       0.39314302       0.49739694 </v>
   <v>       0.36721085       0.44780004       0.49717935 </v>
   <v>       0.39413028       0.47494180       0.49586332 </v>
   <v>       0.44845312       0.44845312       0.49471812 </v>
   <v>       0.47494180       0.39413028       0.49586332 </v>
   <v>       0.44780004       0.36721085       0.49717935 </v>
   <v>       0.22365523       0.39314547       0.49739316 </v>
   <v>       0.19493531       0.44780204       0.49717247 </v>
   <v>       0.14087271       0.47494817       0.49596165 </v>
   <v>       0.11301597       0.44847701       0.49494277 </v>
   <v>       0.14085555       0.39414965       0.49602124 </v>
   <v>       0.19491925       0.36722150       0.49722864 </v>
   <v>       0.39314547       0.22365523       0.49739316 </v>
   <v>       0.36722150       0.19491925       0.49722864 </v>
   <v>       0.39414965       0.14085555       0.49602124 </v>
   <v>       0.44847701       0.11301597       0.49494277 </v>
   <v>       0.47494817       0.14087271       0.49596165 </v>
   <v>       0.44780204       0.19493531       0.49717247 </v>
   <v>       0.47728561       0.47728561       0.49041677 </v>
   <v>       0.48968848       0.48968848       0.42805481 </v>
   <v>       0.51663604       0.51663604       0.42578625 </v>
   <v>       0.52929239       0.52929239       0.48853845 </v>
   <v>       0.53139420       0.53139420       0.36109338 </v>
   <v>       0.47732971       0.05534417       0.49069225 </v>
   <v>       0.48967073       0.03057791       0.42828800 </v>
   <v>       0.51662705       0.97669527       0.42593073 </v>
   <v>       0.52935674       0.95134216       0.48866227 </v>
   <v>       0.53132190       0.94723792       0.36119646 </v>
   <v>       0.05534417       0.47732971       0.49069225 </v>
   <v>       0.03057791       0.48967073       0.42828800 </v>
   <v>       0.97691092       0.51662126       0.54731112 </v>
   <v>       0.51647230       0.51647230       0.54715578 </v>
   <v>       0.49055293       0.49055293       0.54845463 </v>
   <v>       0.51662126       0.97691092       0.54731112 </v>
   <v>       0.49069382       0.02876155       0.54870264 </v>
   <v>       0.02876155       0.49069382       0.54870264 </v>
  </varray>
 </structure>
 <calculation>
  <scstep>
   <time name="dav">  591.42  597.83</time>
   <time name="total">  591.68  598.11</time>
   <energy>
    <i name="alphaZ">     32.25248287 </i>
    <i name="ewald">  38288.06572399 </i>
    <i name="hartreedc"> -47523.84098763 </i>
    <i name="XCdc">   1098.66166716 </i>
    <i name="pawpsdc">  29290.77021793 </i>
    <i name="pawaedc"> -29342.97564867 </i>
    <i name="eentropy">     -0.00000000 </i>
    <i name="bandstr">  -3991.97250876 </i>
    <i name="atom">  11381.98971700 </i>
    <i name="e_fr_energy">   -767.04933612 </i>
    <i name="e_wo_entrp">   -767.04933612 </i>
    <i name="e_0_energy">   -767.04933612 </i>
   </energy>
  </scstep>
  <scstep>
   <time name="dav">  659.41  666.53</time>
   <time name="total">  659.42  666.53</time>
   <energy>
    <i name="e_fr_energy">   -767.41980054 </i>
    <i name="e_wo_entrp">   -767.41980054 </i>
    <i name="e_0_energy">   -767.41980054 </i>
   </energy>
  </scstep>
  <scstep>
   <time name="dav">  734.79  742.80</time>
   <time name="total">  734.79  742.80</time>
   <energy>
    <i name="e_fr_energy">   -767.43227684 </i>
    <i name="e_wo_entrp">   -767.43227684 </i>
    <i name="e_0_energy">   -767.43227684 </i>
   </energy>
  </scstep>
  <scstep>
   <time name="dav">  647.86  654.90</time>
   <time name="total">  647.87  654.91</time>
   <energy>
    <i name="e_fr_energy">   -767.43245906 </i>
    <i name="e_wo_entrp">   -767.43245906 </i>
    <i name="e_0_energy">   -767.43245906 </i>
   </energy>
  </scstep>
  <scstep>
   <time name="dav">  638.45  645.38</time>
   <time name="total">  638.45  645.38</time>
   <energy>
    <i name="e_fr_energy">   -767.43246949 </i>
    <i name="e_wo_entrp">   -767.43246949 </i>
    <i name="e_0_energy">   -767.43246949 </i>
   </energy>
  </scstep>
  <scstep>
   <time name="dav">  497.39  502.80</time>
   <time name="total">  497.39  502.80</time>
   <energy>
    <i name="alphaZ">     32.25248287 </i>
    <i name="ewald">  38288.06572399 </i>
    <i name="hartreedc"> -47523.84098763 </i>
    <i name="XCdc">   1098.66166716 </i>
    <i name="pawpsdc">  29290.77021793 </i>
    <i name="pawaedc"> -29342.97564867 </i>
    <i name="eentropy">     -0.00000000 </i>
    <i name="bandstr">  -3992.35564241 </i>
    <i name="atom">  11381.98971700 </i>
    <i name="e_fr_energy">   -767.43246977 </i>
    <i name="e_wo_entrp">   -767.43246977 </i>
    <i name="e_0_energy">   -767.43246977 </i>
   </energy>
  </scstep>
  <structure>
   <crystal>
    <varray name="basis" >
     <v>      29.74384287      -0.00106351       0.00000000 </v>
     <v>      14.87100041      25.75945528       0.00000000 </v>
     <v>       0.00000000       0.00000000      20.00000000 </v>
    </varray>
    <i name="volume">  15324.02011281 </i>
    <varray name="rec_basis" >
     <v>       0.03361971      -0.01940875       0.00000000 </v>
     <v>       0.00000139       0.03881990       0.00000000 </v>
     <v>       0.00000000       0.00000000       0.05000000 </v>
    </varray>
   </crystal>
   <varray name="positions" >
    <v>       0.97374830       0.51805677       0.31822920 </v>
    <v>       0.92173924       0.57362927       0.35756105 </v>
    <v>       0.92175678       0.51448554       0.35762044 </v>
    <v>       0.88666818       0.48938629       0.49405577 </v>
    <v>       0.79202023       0.53631254       0.49786144 </v>
    <v>       0.88664775       0.63400693       0.49423862 </v>
    <v>       0.79198871       0.68168497       0.49804061 </v>
    <v>       0.68168497       0.79198871       0.49804061 </v>
    <v>       0.63400693       0.88664775       0.49423862 </v>
    <v>       0.53631254       0.79202023       0.49786144 </v>
    <v>       0.48938629       0.88666818       0.49405577 </v>
    <v>       0.53630809       0.68164768       0.49804307 </v>
    <v>       0.48934668       0.63394760       0.49413894 </v>
    <v>       0.63394760       0.48934668       0.49413894 </v>
    <v>       0.68164768       0.53630809       0.49804307 </v>
    <v>       0.71799983       0.57398310       0.49808994 </v>
    <v>       0.71799837       0.71799837       0.49790532 </v>
    <v>       0.57398310       0.71799983       0.49808994 </v>
    <v>       0.11996025       0.51731058       0.49588868 </v>
    <v>       0.21467702       0.47030444       0.49781595 </v>
    <v>       0.11993675       0.37270322       0.49601711 </v>
    <v>       0.21464560       0.32497709       0.49791803 </v>
    <v>       0.32497709       0.21464560       0.49791803 </v>
    <v>       0.37270322       0.11993675       0.49601711 </v>
    <v>       0.47030444       0.21467702       0.49781595 </v>
    <v>       0.51731058       0.11996025       0.49588868 </v>
    <v>       0.47030561       0.32497031       0.49790831 </v>
    <v>       0.51730325       0.37269207       0.49582421 </v>
    <v>       0.37269207       0.51730325       0.49582421 </v>
    <v>       0.32497031       0.47030561       0.49790831 </v>
    <v>       0.28865301       0.43265503       0.49751788 </v>
    <v>       0.28864298       0.28864298       0.49745107 </v>
    <v>       0.43265503       0.28865301       0.49751788 </v>
    <v>       0.47817610       0.47817610       0.38219119 </v>
    <v>       0.51815689       0.51815689       0.31809286 </v>
    <v>       0.57370700       0.51456908       0.35753900 </v>
    <v>       0.51456908       0.57370700       0.35753900 </v>
    <v>       0.47810616       0.05363991       0.38244763 </v>
    <v>       0.51805677       0.97374830       0.31822920 </v>
    <v>       0.51448554       0.92175678       0.35762044 </v>
    <v>       0.57362927       0.92173924       0.35756105 </v>
    <v>       0.05363991       0.47810616       0.38244763 </v>
    <v>       0.97669527       0.51662705       0.42593073 </v>
    <v>       0.95134216       0.52935674       0.48866227 </v>
    <v>       0.94723792       0.53132190       0.36119646 </v>
    <v>       0.72509232       0.64244625       0.49821912 </v>
    <v>       0.69691353       0.61614772       0.49829952 </v>
    <v>       0.64243933       0.64243933       0.49828352 </v>
    <v>       0.61614772       0.69691353       0.49829952 </v>
    <v>       0.64244625       0.72509232       0.49821912 </v>
    <v>       0.69691587       0.69691587       0.49820779 </v>
    <v>       0.61349874       0.61349874       0.49737684 </v>
    <v>       0.63941062       0.55883718       0.49669387 </v>
    <v>       0.61247939       0.53171618       0.49439160 </v>
    <v>       0.55815251       0.55815251       0.49284889 </v>
    <v>       0.53171618       0.61247939       0.49439160 </v>
    <v>       0.55883718       0.63941062       0.49669387 </v>
    <v>       0.78296623       0.61351872       0.49730010 </v>
    <v>       0.81171584       0.55885798       0.49658087 </v>
    <v>       0.86576148       0.53175572       0.49433673 </v>
    <v>       0.89363385       0.55821103       0.49288742 </v>
    <v>       0.86575040       0.61253243       0.49444067 </v>
    <v>       0.81170366       0.63944600       0.49667989 </v>
    <v>       0.61351872       0.78296623       0.49730010 </v>
    <v>       0.63944600       0.81170366       0.49667989 </v>
    <v>       0.61253243       0.86575040       0.49444067 </v>
    <v>       0.55821103       0.89363385       0.49288742 </v>
    <v>       0.53175572       0.86576148       0.49433673 </v>
    <v>       0.55885798       0.81171584       0.49658087 </v>
    <v>       0.28153621       0.36420217       0.49758701 </v>
    <v>       0.30972716       0.39049008       0.49757439 </v>
    <v>       0.36420189       0.36420189       0.49760721 </v>
    <v>       0.39049008       0.30972716       0.49757439 </v>
    <v>       0.36420217       0.28153621       0.49758701 </v>
    <v>       0.30972528       0.30972528       0.49754518 </v>
    <v>       0.39314302       0.39314302       0.49739694 </v>
    <v>       0.36721085       0.44780004       0.49717935 </v>
    <v>       0.39413028       0.47494180       0.49586332 </v>
    <v>       0.44845312       0.44845312       0.49471812 </v>
    <v>       0.47494180       0.39413028       0.49586332 </v>
    <v>       0.44780004       0.36721085       0.49717935 </v>
    <v>       0.22365523       0.39314547       0.49739316 </v>
    <v>       0.19493531       0.44780204       0.49717247 </v>
    <v>       0.14087271       0.47494817       0.49596165 </v>
    <v>       0.11301597       0.44847701       0.49494277 </v>
    <v>       0.14085555       0.39414965       0.49602124 </v>
    <v>       0.19491925       0.36722150       0.49722864 </v>
    <v>       0.39314547       0.22365523       0.49739316 </v>
    <v>       0.36722150       0.19491925       0.49722864 </v>
    <v>       0.39414965       0.14085555       0.49602124 </v>
    <v>       0.44847701       0.11301597       0.49494277 </v>
    <v>       0.47494817       0.14087271       0.49596165 </v>
    <v>       0.44780204       0.19493531       0.49717247 </v>
    <v>       0.47728561       0.47728561       0.49041677 </v>
    <v>       0.48968848       0.48968848       0.42805481 </v>
    <v>       0.51663604       0.51663604       0.42578625 </v>
    <v>       0.52929239       0.52929239       0.48853845 </v>
    <v>       0.53139420       0.53139420       0.36109338 </v>
    <v>       0.47732971       0.05534417       0.49069225 </v>
    <v>       0.48967073       0.03057791       0.42828800 </v>
    <v>       0.51662705       0.97669527       0.42593073 </v>
    <v>       0.52935674       0.95134216       0.48866227 </v>
    <v>       0.53132190       0.94723792       0.36119646 </v>
    <v>       0.05534417       0.47732971       0.49069225 </v>
    <v>       0.03057791       0.48967073       0.42828800 </v>
    <v>       0.97691092       0.51662126       0.54731112 </v>
    <v>       0.51647230       0.51647230       0.54715578 </v>
    <v>       0.49055293       0.49055293       0.54845463 </v>
    <v>       0.51662126       0.97691092       0.54731112 </v>
    <v>       0.49069382       0.02876155       0.54870264 </v>
    <v>       0.02876155       0.49069382       0.54870264 </v>
   </varray>
  </structure>
  <varray name="forces" >
   <v>      -0.00441280       0.00282701       0.00099977 </v>
   <v>       0.00234077      -0.00200456       0.00006284 </v>
   <v>       0.00314159      -0.00082404       0.00016801 </v>
   <v>      -0.00271836       0.00070766       0.00054091 </v>
   <v>       0.00146189       0.00066627      -0.00272048 </v>
   <v>      -0.00186982       0.00275491       0.00020271 </v>
   <v>       0.00042622      -0.00098985      -0.00239529 </v>
   <v>      -0.00064412       0.00086404      -0.00239529 </v>
   <v>       0.00145091      -0.00299676       0.00020271 </v>
   <v>       0.00130795       0.00093289      -0.00272048 </v>
   <v>      -0.00074633      -0.00270799       0.00054091 </v>
   <v>      -0.00033843      -0.00020915      -0.00233411 </v>
   <v>       0.00158464       0.00308768       0.00061438 </v>
   <v>       0.00346633      -0.00017150       0.00061438 </v>
   <v>      -0.00035034      -0.00018851      -0.00233411 </v>
   <v>       0.00033658       0.00257328       0.00164443 </v>
   <v>      -0.00061864      -0.00035717       0.00193467 </v>
   <v>       0.00239682      -0.00099515       0.00164443 </v>
   <v>       0.00304686      -0.00096721      -0.00392601 </v>
   <v>       0.00391374       0.00300683       0.00351855 </v>
   <v>       0.00234597      -0.00098648      -0.00401537 </v>
   <v>      -0.00070676      -0.00327211       0.00316118 </v>
   <v>      -0.00318711       0.00102398       0.00316118 </v>
   <v>       0.00031867       0.00252491      -0.00401537 </v>
   <v>       0.00456086       0.00188598       0.00351855 </v>
   <v>       0.00068580       0.00312226      -0.00392601 </v>
   <v>       0.00040018      -0.00472661       0.00312905 </v>
   <v>      -0.00139240      -0.00225030      -0.00536285 </v>
   <v>      -0.00264502      -0.00008070      -0.00536285 </v>
   <v>      -0.00389327       0.00270987       0.00312905 </v>
   <v>      -0.00020974      -0.00168173       0.00170150 </v>
   <v>       0.00122684       0.00070832       0.00184465 </v>
   <v>      -0.00156129       0.00065923       0.00170150 </v>
   <v>       0.00438670       0.00253266      -0.00323948 </v>
   <v>       0.00637638       0.00368140      -0.00067000 </v>
   <v>      -0.00006488      -0.00003007      -0.00075150 </v>
   <v>      -0.00005848      -0.00004115      -0.00075150 </v>
   <v>       0.00026820      -0.00501411       0.00055790 </v>
   <v>       0.00024186      -0.00523510       0.00099977 </v>
   <v>       0.00085715       0.00313272       0.00016801 </v>
   <v>      -0.00056561       0.00302944       0.00006284 </v>
   <v>      -0.00420824       0.00273933       0.00055790 </v>
   <v>       0.00195502      -0.00072215      -0.00135326 </v>
   <v>      -0.00374895       0.00177831      -0.00554076 </v>
   <v>      -0.00703005       0.00425721      -0.00344711 </v>
   <v>       0.00539150      -0.00476541       0.00043699 </v>
   <v>       0.00038902       0.00209876       0.00175066 </v>
   <v>      -0.00601269      -0.00347143       0.00044889 </v>
   <v>       0.00201209      -0.00071248       0.00175066 </v>
   <v>      -0.00143122       0.00705189       0.00043699 </v>
   <v>      -0.00174110      -0.00100522       0.00214903 </v>
   <v>      -0.00411695      -0.00237692      -0.00169533 </v>
   <v>      -0.00110957       0.00017973      -0.00014812 </v>
   <v>       0.00183126      -0.00118846       0.00290347 </v>
   <v>       0.00587768       0.00339348       0.00068395 </v>
   <v>      -0.00011361       0.00218015       0.00290347 </v>
   <v>      -0.00039913      -0.00105078      -0.00014812 </v>
   <v>       0.00492363      -0.00346466      -0.00215265 </v>
   <v>       0.00042344       0.00000494       0.00010114 </v>
   <v>      -0.00400768      -0.00122981       0.00293442 </v>
   <v>      -0.00463681       0.00288447       0.00012398 </v>
   <v>      -0.00098567       0.00398734       0.00268774 </v>
   <v>       0.00048393       0.00096884       0.00036714 </v>
   <v>      -0.00053867       0.00599632      -0.00215265 </v>
   <v>       0.00108101      -0.00006533       0.00036714 </v>
   <v>       0.00296030      -0.00284728       0.00268774 </v>
   <v>       0.00017962      -0.00545783       0.00012398 </v>
   <v>      -0.00306889      -0.00285585       0.00293442 </v>
   <v>       0.00021600       0.00036424       0.00010114 </v>
   <v>       0.00193327      -0.00128117       0.00386550 </v>
   <v>      -0.00063556      -0.00127444       0.00522108 </v>
   <v>      -0.00127011      -0.00073330       0.00452752 </v>
   <v>      -0.00142148       0.00008681       0.00522108 </v>
   <v>      -0.00014289       0.00231484       0.00386550 </v>
   <v>       0.00051617       0.00029801       0.00509601 </v>
   <v>      -0.00482477      -0.00278559      -0.00119868 </v>
   <v>      -0.00197074      -0.00270350       0.00012313 </v>
   <v>       0.00115905      -0.00087588      -0.00298218 </v>
   <v>       0.00796598       0.00459916      -0.00247011 </v>
   <v>      -0.00017901       0.00144171      -0.00298218 </v>
   <v>      -0.00332667      -0.00035496       0.00012313 </v>
   <v>       0.00409531      -0.00355996      -0.00037626 </v>
   <v>       0.00132257      -0.00074955       0.00016805 </v>
   <v>      -0.00076157       0.00141657      -0.00116336 </v>
   <v>      -0.00456169       0.00276854      -0.00028409 </v>
   <v>      -0.00144414      -0.00015913      -0.00077013 </v>
   <v>       0.00166147      -0.00073490       0.00033203 </v>
   <v>      -0.00103536       0.00532662      -0.00037626 </v>
   <v>       0.00019430       0.00180633       0.00033203 </v>
   <v>      -0.00085988      -0.00117109      -0.00077013 </v>
   <v>       0.00011678      -0.00533481      -0.00028409 </v>
   <v>       0.00084601      -0.00136782      -0.00116336 </v>
   <v>       0.00001216       0.00152016       0.00016805 </v>
   <v>       0.00241009       0.00139147       0.00266352 </v>
   <v>       0.00375854       0.00216999       0.00263572 </v>
   <v>      -0.00217732      -0.00125708      -0.00745917 </v>
   <v>       0.00245427       0.00141697       0.00461556 </v>
   <v>       0.00541295       0.00312517       0.00032762 </v>
   <v>       0.00051461      -0.00894290      -0.00201018 </v>
   <v>       0.00000428       0.00213908       0.00241237 </v>
   <v>       0.00035211       0.00205417      -0.00135326 </v>
   <v>      -0.00033441      -0.00413584      -0.00554076 </v>
   <v>       0.00017183      -0.00821680      -0.00344711 </v>
   <v>      -0.00748747       0.00491712      -0.00201018 </v>
   <v>       0.00185464      -0.00106583       0.00241237 </v>
   <v>       0.00049251      -0.00125609       0.00016204 </v>
   <v>      -0.00306525      -0.00176972      -0.00565849 </v>
   <v>      -0.00583668      -0.00336981       0.00186049 </v>
   <v>      -0.00084155       0.00105457       0.00016204 </v>
   <v>      -0.00174011       0.00277480      -0.00135546 </v>
   <v>       0.00153299      -0.00289438      -0.00135546 </v>
  </varray>
  <varray name="stress" >
   <v>      -0.00356450       0.00004273       0.00343462 </v>
   <v>       0.00004273      -0.00361385       0.00198298 </v>
   <v>       0.00343462       0.00198298      -0.13817708 </v>
  </varray>
  <energy>
   <i name="e_fr_energy">   -769.54148936 </i>
   <i name="e_wo_entrp">   -769.54148936 </i>
   <i name="e_0_energy">     -0.00000000 </i>
  </energy>
  <time name="totalsc"> 4471.65 4521.80</time>
  <eigenvalues>
   <array>
    <dimension dim="1">band</dimension>
    <dimension dim="2">kpoint</dimension>
    <dimension dim="3">spin</dimension>
    <field>eigene</field>
    <field>occ</field>
    <set>
     <set comment="spin 1">
      <set comment="kpoint 1">
       <r>  -25.0298    1.0000 </r>
       <r>  -25.0259    1.0000 </r>
       <r>  -25.0259    1.0000 </r>
       <r>  -21.7933    1.0000 </r>
       <r>  -21.7105    1.0000 </r>
       <r>  -21.5577    1.0000 </r>
       <r>  -21.5568    1.0000 </r>
       <r>  -21.3677    1.0000 </r>
       <r>  -21.3673    1.0000 </r>
       <r>  -21.2530    1.0000 </r>
       <r>  -21.0061    1.0000 </r>
       <r>  -20.6576    1.0000 </r>
       <r>  -20.6573    1.0000 </r>
       <r>  -20.4919    1.0000 </r>
       <r>  -20.4678    1.0000 </r>
       <r>  -20.4676    1.0000 </r>
       <r>  -20.2041    1.0000 </r>
       <r>  -19.4864    1.0000 </r>
       <r>  -19.4861    1.0000 </r>
       <r>  -19.1342    1.0000 </r>
       <r>  -19.1338    1.0000 </r>
       <r>  -18.6764    1.0000 </r>
       <r>  -18.4344    1.0000 </r>
       <r>  -18.4333    1.0000 </r>
       <r>  -18.3952    1.0000 </r>
       <r>  -18.3640    1.0000 </r>
       <r>  -18.3638    1.0000 </r>
       <r>  -18.3271    1.0000 </r>
       <r>  -18.0856    1.0000 </r>
       <r>  -18.0198    1.0000 </r>
       <r>  -18.0193    1.0000 </r>
       <r>  -17.7101    1.0000 </r>
       <r>  -17.6517    1.0000 </r>
       <r>  -17.6516    1.0000 </r>
       <r>  -17.4518    1.0000 </r>
       <r>  -17.4517    1.0000 </r>
       <r>  -16.2342    1.0000 </r>
       <r>  -16.2339    1.0000 </r>
       <r>  -16.1986    1.0000 </r>
       <r>  -15.7771    1.0000 </r>
       <r>  -15.7761    1.0000 </r>
       <r>  -15.5787    1.0000 </r>
       <r>  -15.4139    1.0000 </r>
       <r>  -15.4128    1.0000 </r>
       <r>  -15.0646    1.0000 </r>
       <r>  -15.0639    1.0000 </r>
       <r>  -14.9672    1.0000 </r>
       <r>  -14.8970    1.0000 </r>
       <r>  -14.7827    1.0000 </r>
       <r>  -14.6431    1.0000 </r>
       <r>  -14.6429    1.0000 </r>
       <r>  -14.4249    1.0000 </r>
       <r>  -14.4248    1.0000 </r>
       <r>  -14.3163    1.0000 </r>
       <r>  -13.8449    1.0000 </r>
       <r>  -13.8445    1.0000 </r>
       <r>  -13.7516    1.0000 </r>
       <r>  -13.7514    1.0000 </r>
       <r>  -13.3133    1.0000 </r>
       <r>  -13.2216    1.0000 </r>
       <r>  -12.8600    1.0000 </r>
       <r>  -12.8600    1.0000 </r>
       <r>  -12.7128    1.0000 </r>
       <r>  -12.6210    1.0000 </r>
       <r>  -12.6206    1.0000 </r>
       <r>  -12.4162    1.0000 </r>
       <r>  -12.4161    1.0000 </r>
       <r>  -12.2383    1.0000 </r>
       <r>  -11.9360    1.0000 </r>
       <r>  -11.8706    1.0000 </r>
       <r>  -11.8456    1.0000 </r>
       <r>  -11.7447    1.0000 </r>
       <r>  -11.6590    1.0000 </r>
       <r>  -11.3729    1.0000 </r>
       <r>  -11.3725    1.0000 </r>
       <r>  -11.2307    1.0000 </r>
       <r>  -11.2307    1.0000 </r>
       <r>  -10.9416    1.0000 </r>
       <r>  -10.9412    1.0000 </r>
       <r>  -10.8608    1.0000 </r>
       <r>  -10.8607    1.0000 </r>
       <r>  -10.7313    1.0000 </r>
       <r>  -10.7312    1.0000 </r>
       <r>  -10.6470    1.0000 </r>
       <r>  -10.4775    1.0000 </r>
       <r>  -10.4770    1.0000 </r>
       <r>  -10.4754    1.0000 </r>
       <r>  -10.4150    1.0000 </r>
       <r>  -10.4150    1.0000 </r>
       <r>  -10.1982    1.0000 </r>
       <r>  -10.1977    1.0000 </r>
       <r>  -10.1774    1.0000 </r>
       <r>  -10.1472    1.0000 </r>
       <r>  -10.1155    1.0000 </r>
       <r>  -10.0746    1.0000 </r>
       <r>  -10.0539    1.0000 </r>
       <r>  -10.0532    1.0000 </r>
       <r>   -9.9839    1.0000 </r>
       <r>   -9.9510    1.0000 </r>
       <r>   -9.8823    1.0000 </r>
       <r>   -9.8816    1.0000 </r>
       <r>   -9.8807    1.0000 </r>
       <r>   -9.7558    1.0000 </r>
       <r>   -9.7554    1.0000 </r>
       <r>   -9.7501    1.0000 </r>
       <r>   -9.7040    1.0000 </r>
       <r>   -9.6704    1.0000 </r>
       <r>   -9.6697    1.0000 </r>
       <r>   -9.5678    1.0000 </r>
       <r>   -9.4925    1.0000 </r>
       <r>   -9.4334    1.0000 </r>
       <r>   -9.4332    1.0000 </r>
       <r>   -9.1544    1.0000 </r>
       <r>   -9.1536    1.0000 </r>
       <r>   -9.0758    1.0000 </r>
       <r>   -9.0751    1.0000 </r>
       <r>   -8.8520    1.0000 </r>
       <r>   -8.8515    1.0000 </r>
       <r>   -8.8061    1.0000 </r>
       <r>   -8.7871    1.0000 </r>
       <r>   -8.7867    1.0000 </r>
       <r>   -8.6915    1.0000 </r>
       <r>   -8.5511    1.0000 </r>
       <r>   -8.4516    1.0000 </r>
       <r>   -8.4380    1.0000 </r>
       <r>   -8.4379    1.0000 </r>
       <r>   -8.2933    1.0000 </r>
       <r>   -8.2930    1.0000 </r>
       <r>   -8.1278    1.0000 </r>
       <r>   -8.0200    1.0000 </r>
       <r>   -7.7603    1.0000 </r>
       <r>   -7.7600    1.0000 </r>
       <r>   -7.6686    1.0000 </r>
       <r>   -7.6685    1.0000 </r>
       <r>   -7.2823    1.0000 </r>
       <r>   -7.2819    1.0000 </r>
       <r>   -7.1939    1.0000 </r>
       <r>   -7.1938    1.0000 </r>
       <r>   -7.1166    1.0000 </r>
       <r>   -7.1133    1.0000 </r>
       <r>   -7.1130    1.0000 </r>
       <r>   -6.8939    1.0000 </r>
       <r>   -6.8105    1.0000 </r>
       <r>   -6.8101    1.0000 </r>
       <r>   -6.6325    1.0000 </r>
       <r>   -6.6253    1.0000 </r>
       <r>   -6.6250    1.0000 </r>
       <r>   -6.2954    1.0000 </r>
       <r>   -6.2945    1.0000 </r>
       <r>   -6.2828    1.0000 </r>
       <r>   -6.2220    1.0000 </r>
       <r>   -6.2218    1.0000 </r>
       <r>   -6.2093    1.0000 </r>
       <r>   -6.0644    1.0000 </r>
       <r>   -5.9221    1.0000 </r>
       <r>   -5.3952    1.0000 </r>
       <r>   -5.3950    1.0000 </r>
       <r>   -5.2928    1.0000 </r>
       <r>   -5.2923    1.0000 </r>
       <r>   -4.8693    1.0000 </r>
       <r>   -4.8593    1.0000 </r>
       <r>   -4.8579    1.0000 </r>
       <r>   -2.1641    0.0000 </r>
       <r>   -2.1638    0.0000 </r>
       <r>   -2.1270    0.0000 </r>
       <r>   -2.1270    0.0000 </r>
       <r>   -2.0994    0.0000 </r>
       <r>   -2.0032    0.0000 </r>
       <r>   -2.0029    0.0000 </r>
       <r>   -1.5762    0.0000 </r>
       <r>   -1.5762    0.0000 </r>
       <r>   -1.5749    0.0000 </r>
       <r>   -1.4602    0.0000 </r>
       <r>   -1.3373    0.0000 </r>
       <r>   -1.1366    0.0000 </r>
       <r>   -1.1128    0.0000 </r>
       <r>   -1.1124    0.0000 </r>
       <r>   -0.9994    0.0000 </r>
       <r>   -0.9779    0.0000 </r>
       <r>   -0.9772    0.0000 </r>
       <r>   -0.5242    0.0000 </r>
       <r>   -0.3710    0.0000 </r>
       <r>   -0.3704    0.0000 </r>
       <r>   -0.3387    0.0000 </r>
       <r>   -0.1487    0.0000 </r>
       <r>   -0.1473    0.0000 </r>
       <r>   -0.0240    0.0000 </r>
       <r>   -0.0025    0.0000 </r>
       <r>   -0.0021    0.0000 </r>
       <r>    0.0789    0.0000 </r>
       <r>    0.0792    0.0000 </r>
       <r>    0.1856    0.0000 </r>
       <r>    0.1857    0.0000 </r>
       <r>    0.2526    0.0000 </r>
       <r>    0.2959    0.0000 </r>
       <r>    0.3123    0.0000 </r>
       <r>    0.3131    0.0000 </r>
       <r>    0.3179    0.0000 </r>
       <r>    0.3595    0.0000 </r>
       <r>    0.3601    0.0000 </r>
       <r>    0.4503    0.0000 </r>
       <r>    0.5349    0.0000 </r>
       <r>    0.5361    0.0000 </r>
       <r>    0.5370    0.0000 </r>
       <r>    0.5853    0.0000 </r>
       <r>    0.7068    0.0000 </r>
       <r>    0.7163    0.0000 </r>
       <r>    0.7175    0.0000 </r>
       <r>    0.7527    0.0000 </r>
       <r>    0.7570    0.0000 </r>
       <r>    0.7711    0.0000 </r>
       <r>    0.8190    0.0000 </r>
       <r>    0.8401    0.0000 </r>
       <r>    0.8411    0.0000 </r>
       <r>    0.8419    0.0000 </r>
       <r>    0.8537    0.0000 </r>
       <r>    0.8587    0.0000 </r>
       <r>    0.8687    0.0000 </r>
       <r>    0.9199    0.0000 </r>
       <r>    0.9311    0.0000 </r>
       <r>    0.9471    0.0000 </r>
       <r>    0.9521    0.0000 </r>
       <r>    0.9871    0.0000 </r>
       <r>    0.9894    0.0000 </r>
      </set>
      <set comment="kpoint 2">
       <r>  -25.0298    1.0000 </r>
       <r>  -25.0259    1.0000 </r>
       <r>  -25.0259    1.0000 </r>
       <r>  -21.7933    1.0000 </r>
       <r>  -21.7106    1.0000 </r>
       <r>  -21.5577    1.0000 </r>
       <r>  -21.5566    1.0000 </r>
       <r>  -21.3679    1.0000 </r>
       <r>  -21.3677    1.0000 </r>
       <r>  -21.2524    1.0000 </r>
       <r>  -21.0063    1.0000 </r>
       <r>  -20.6576    1.0000 </r>
       <r>  -20.6572    1.0000 </r>
       <r>  -20.4923    1.0000 </r>
       <r>  -20.4676    1.0000 </r>
       <r>  -20.4671    1.0000 </r>
       <r>  -20.2044    1.0000 </r>
       <r>  -19.4864    1.0000 </r>
       <r>  -19.4856    1.0000 </r>
       <r>  -19.1345    1.0000 </r>
       <r>  -19.1342    1.0000 </r>
       <r>  -18.6755    1.0000 </r>
       <r>  -18.4345    1.0000 </r>
       <r>  -18.4333    1.0000 </r>
       <r>  -18.3952    1.0000 </r>
       <r>  -18.3640    1.0000 </r>
       <r>  -18.3638    1.0000 </r>
       <r>  -18.3271    1.0000 </r>
       <r>  -18.0895    1.0000 </r>
       <r>  -18.0198    1.0000 </r>
       <r>  -18.0157    1.0000 </r>
       <r>  -17.7102    1.0000 </r>
       <r>  -17.6516    1.0000 </r>
       <r>  -17.6516    1.0000 </r>
       <r>  -17.4518    1.0000 </r>
       <r>  -17.4518    1.0000 </r>
       <r>  -16.2342    1.0000 </r>
       <r>  -16.2339    1.0000 </r>
       <r>  -16.1986    1.0000 </r>
       <r>  -15.7771    1.0000 </r>
       <r>  -15.7760    1.0000 </r>
       <r>  -15.5787    1.0000 </r>
       <r>  -15.4139    1.0000 </r>
       <r>  -15.4128    1.0000 </r>
       <r>  -15.0646    1.0000 </r>
       <r>  -15.0643    1.0000 </r>
       <r>  -14.9672    1.0000 </r>
       <r>  -14.8970    1.0000 </r>
       <r>  -14.7823    1.0000 </r>
       <r>  -14.6432    1.0000 </r>
       <r>  -14.6428    1.0000 </r>
       <r>  -14.4248    1.0000 </r>
       <r>  -14.4248    1.0000 </r>
       <r>  -14.3165    1.0000 </r>
       <r>  -13.8449    1.0000 </r>
       <r>  -13.8445    1.0000 </r>
       <r>  -13.7516    1.0000 </r>
       <r>  -13.7514    1.0000 </r>
       <r>  -13.3133    1.0000 </r>
       <r>  -13.2216    1.0000 </r>
       <r>  -12.8600    1.0000 </r>
       <r>  -12.8598    1.0000 </r>
       <r>  -12.7131    1.0000 </r>
       <r>  -12.6210    1.0000 </r>
       <r>  -12.6206    1.0000 </r>
       <r>  -12.4165    1.0000 </r>
       <r>  -12.4160    1.0000 </r>
       <r>  -12.2375    1.0000 </r>
       <r>  -11.9360    1.0000 </r>
       <r>  -11.8706    1.0000 </r>
       <r>  -11.8456    1.0000 </r>
       <r>  -11.7447    1.0000 </r>
       <r>  -11.6602    1.0000 </r>
       <r>  -11.3726    1.0000 </r>
       <r>  -11.3721    1.0000 </r>
       <r>  -11.2303    1.0000 </r>
       <r>  -11.2303    1.0000 </r>
       <r>  -10.9420    1.0000 </r>
       <r>  -10.9419    1.0000 </r>
       <r>  -10.8605    1.0000 </r>
       <r>  -10.8604    1.0000 </r>
       <r>  -10.7315    1.0000 </r>
       <r>  -10.7314    1.0000 </r>
       <r>  -10.6464    1.0000 </r>
       <r>  -10.4857    1.0000 </r>
       <r>  -10.4775    1.0000 </r>
       <r>  -10.4672    1.0000 </r>
       <r>  -10.4152    1.0000 </r>
       <r>  -10.4147    1.0000 </r>
       <r>  -10.1985    1.0000 </r>
       <r>  -10.1976    1.0000 </r>
       <r>  -10.1771    1.0000 </r>
       <r>  -10.1472    1.0000 </r>
       <r>  -10.1154    1.0000 </r>
       <r>  -10.0748    1.0000 </r>
       <r>  -10.0539    1.0000 </r>
       <r>  -10.0530    1.0000 </r>
       <r>   -9.9839    1.0000 </r>
       <r>   -9.9511    1.0000 </r>
       <r>   -9.8822    1.0000 </r>
       <r>   -9.8816    1.0000 </r>
       <r>   -9.8807    1.0000 </r>
       <r>   -9.7558    1.0000 </r>
       <r>   -9.7555    1.0000 </r>
       <r>   -9.7500    1.0000 </r>
       <r>   -9.7040    1.0000 </r>
       <r>   -9.6703    1.0000 </r>
       <r>   -9.6698    1.0000 </r>
       <r>   -9.5680    1.0000 </r>
       <r>   -9.4924    1.0000 </r>
       <r>   -9.4334    1.0000 </r>
       <r>   -9.4333    1.0000 </r>
       <r>   -9.1544    1.0000 </r>
       <r>   -9.1536    1.0000 </r>
       <r>   -9.0758    1.0000 </r>
       <r>   -9.0752    1.0000 </r>
       <r>   -8.8521    1.0000 </r>
       <r>   -8.8515    1.0000 </r>
       <r>   -8.8060    1.0000 </r>
       <r>   -8.7871    1.0000 </r>
       <r>   -8.7866    1.0000 </r>
       <r>   -8.6917    1.0000 </r>
       <r>   -8.5511    1.0000 </r>
       <r>   -8.4518    1.0000 </r>
       <r>   -8.4378    1.0000 </r>
       <r>   -8.4376    1.0000 </r>
       <r>   -8.2935    1.0000 </r>
       <r>   -8.2932    1.0000 </r>
       <r>   -8.1277    1.0000 </r>
       <r>   -8.0201    1.0000 </r>
       <r>   -7.7602    1.0000 </r>
       <r>   -7.7599    1.0000 </r>
       <r>   -7.6686    1.0000 </r>
       <r>   -7.6685    1.0000 </r>
       <r>   -7.2823    1.0000 </r>
       <r>   -7.2819    1.0000 </r>
       <r>   -7.1939    1.0000 </r>
       <r>   -7.1938    1.0000 </r>
       <r>   -7.1166    1.0000 </r>
       <r>   -7.1133    1.0000 </r>
       <r>   -7.1130    1.0000 </r>
       <r>   -6.8938    1.0000 </r>
       <r>   -6.8106    1.0000 </r>
       <r>   -6.8101    1.0000 </r>
       <r>   -6.6325    1.0000 </r>
       <r>   -6.6253    1.0000 </r>
       <r>   -6.6250    1.0000 </r>
       <r>   -6.2954    1.0000 </r>
       <r>   -6.2945    1.0000 </r>
       <r>   -6.2828    1.0000 </r>
       <r>   -6.2220    1.0000 </r>
       <r>   -6.2218    1.0000 </r>
       <r>   -6.2093    1.0000 </r>
       <r>   -6.0642    1.0000 </r>
       <r>   -5.9223    1.0000 </r>
       <r>   -5.3952    1.0000 </r>
       <r>   -5.3949    1.0000 </r>
       <r>   -5.2928    1.0000 </r>
       <r>   -5.2924    1.0000 </r>
       <r>   -4.8693    1.0000 </r>
       <r>   -4.8593    1.0000 </r>
       <r>   -4.8579    1.0000 </r>
       <r>   -2.1642    0.0000 </r>
       <r>   -2.1639    0.0000 </r>
       <r>   -2.1271    0.0000 </r>
       <r>   -2.1268    0.0000 </r>
       <r>   -2.0992    0.0000 </r>
       <r>   -2.0033    0.0000 </r>
       <r>   -2.0030    0.0000 </r>
       <r>   -1.5762    0.0000 </r>
       <r>   -1.5762    0.0000 </r>
       <r>   -1.5749    0.0000 </r>
       <r>   -1.4601    0.0000 </r>
       <r>   -1.3374    0.0000 </r>
       <r>   -1.1366    0.0000 </r>
       <r>   -1.1127    0.0000 </r>
       <r>   -1.1124    0.0000 </r>
       <r>   -0.9994    0.0000 </r>
       <r>   -0.9779    0.0000 </r>
       <r>   -0.9773    0.0000 </r>
       <r>   -0.5241    0.0000 </r>
       <r>   -0.3716    0.0000 </r>
       <r>   -0.3710    0.0000 </r>
       <r>   -0.3374    0.0000 </r>
       <r>   -0.1487    0.0000 </r>
       <r>   -0.1471    0.0000 </r>
       <r>   -0.0246    0.0000 </r>
       <r>   -0.0023    0.0000 </r>
       <r>   -0.0023    0.0000 </r>
       <r>    0.0789    0.0000 </r>
       <r>    0.0795    0.0000 </r>
       <r>    0.1855    0.0000 </r>
       <r>    0.1855    0.0000 </r>
       <r>    0.2523    0.0000 </r>
       <r>    0.2961    0.0000 </r>
       <r>    0.3101    0.0000 </r>
       <r>    0.3131    0.0000 </r>
       <r>    0.3201    0.0000 </r>
       <r>    0.3600    0.0000 </r>
       <r>    0.3610    0.0000 </r>
       <r>    0.4504    0.0000 </r>
       <r>    0.5349    0.0000 </r>
       <r>    0.5361    0.0000 </r>
       <r>    0.5371    0.0000 </r>
       <r>    0.5853    0.0000 </r>
       <r>    0.7047    0.0000 </r>
       <r>    0.7157    0.0000 </r>
       <r>    0.7185    0.0000 </r>
       <r>    0.7531    0.0000 </r>
       <r>    0.7576    0.0000 </r>
       <r>    0.7709    0.0000 </r>
       <r>    0.8178    0.0000 </r>
       <r>    0.8355    0.0000 </r>
       <r>    0.8411    0.0000 </r>
       <r>    0.8453    0.0000 </r>
       <r>    0.8555    0.0000 </r>
       <r>    0.8585    0.0000 </r>
       <r>    0.8688    0.0000 </r>
       <r>    0.9192    0.0000 </r>
       <r>    0.9303    0.0000 </r>
       <r>    0.9478    0.0000 </r>
       <r>    0.9529    0.0000 </r>
       <r>    0.9884    0.0000 </r>
       <r>    0.9885    0.0000 </r>
      </set>
      <set comment="kpoint 3">
       <r>  -25.0298    1.0000 </r>
       <r>  -25.0259    1.0000 </r>
       <r>  -25.0259    1.0000 </r>
       <r>  -21.7933    1.0000 </r>
       <r>  -21.7108    1.0000 </r>
       <r>  -21.5577    1.0000 </r>
       <r>  -21.5560    1.0000 </r>
       <r>  -21.3695    1.0000 </r>
       <r>  -21.3677    1.0000 </r>
       <r>  -21.2505    1.0000 </r>
       <r>  -21.0072    1.0000 </r>
[...]
       <r>   -21.5533    18.1591    11.7361 </r>
       <r>   -21.4577    13.7543    14.0157 </r>
       <r>   -21.3620    32.6581    17.5241 </r>
       <r>   -21.2664     0.0456    18.0044 </r>
       <r>   -21.1708    12.5069    19.3300 </r>
       <r>   -21.0752     0.8057    20.0770 </r>
       <r>   -20.9796    13.5693    22.0000 </r>
       <r>   -20.8840     0.0000    22.0000 </r>
       <r>   -20.7884     0.0000    22.0000 </r>
       <r>   -20.6928     0.0000    22.0000 </r>
       <r>   -20.5972    41.8390    26.0000 </r>
       <r>   -20.5016    15.8426    27.5146 </r>
       <r>   -20.4060    32.1307    31.0718 </r>
       <r>   -20.3104     0.0000    32.0000 </r>
       <r>   -20.2148    16.8755    33.6134 </r>
       <r>   -20.1192     0.0000    34.0000 </r>
       <r>   -20.0236     0.0000    34.0000 </r>
       <r>   -19.9280     0.0000    34.0000 </r>
       <r>   -19.8324     0.0000    34.0000 </r>
       <r>   -19.7368     0.0000    34.0000 </r>
       <r>   -19.6412     0.0000    34.0000 </r>
       <r>   -19.5456     0.0000    34.0000 </r>
       <r>   -19.4500    27.3380    36.6136 </r>
       <r>   -19.3543    13.1626    37.9922 </r>
       <r>   -19.2587     8.9265    38.8534 </r>
       <r>   -19.1631     5.2020    39.5640 </r>
       <r>   -19.0675    24.0537    42.0000 </r>
       <r>   -18.9719     0.0000    42.0000 </r>
       <r>   -18.8763     0.0000    42.0000 </r>
       <r>   -18.7807     0.0000    42.0000 </r>
       <r>   -18.6851     0.1663    42.0159 </r>
       <r>   -18.5895     5.6288    42.7387 </r>
       <r>   -18.4939     9.5372    43.7121 </r>
       <r>   -18.3983    49.7655    48.6582 </r>
       <r>   -18.3027    72.1718    56.9000 </r>
       <r>   -18.2071     3.5172    57.4029 </r>
       <r>   -18.1115     3.3277    57.7851 </r>
       <r>   -18.0159    17.0030    59.4923 </r>
       <r>   -17.9203     4.0008    60.5825 </r>
       <r>   -17.8247    13.8875    61.9946 </r>
       <r>   -17.7291     1.8304    62.1750 </r>
       <r>   -17.6335    47.0207    67.9322 </r>
       <r>   -17.5379     0.0000    68.0000 </r>
       <r>   -17.4423    39.7175    71.7972 </r>
       <r>   -17.3467     0.0000    72.0000 </r>
       <r>   -17.2510     0.0000    72.0000 </r>
       <r>   -17.1554     0.0000    72.0000 </r>
       <r>   -17.0598     0.0000    72.0000 </r>
       <r>   -16.9642     0.0000    72.0000 </r>
       <r>   -16.8686     0.0000    72.0000 </r>
       <r>   -16.7730     0.0000    72.0000 </r>
       <r>   -16.6774     0.0000    72.0000 </r>
       <r>   -16.5818     0.0000    72.0000 </r>
       <r>   -16.4862     0.0000    72.0000 </r>
       <r>   -16.3906     0.0000    72.0000 </r>
       <r>   -16.2950     0.0000    72.0000 </r>
       <r>   -16.1994    56.3300    77.3854 </r>
       <r>   -16.1038     0.0000    78.0000 </r>
       <r>   -16.0082     0.0000    78.0000 </r>
       <r>   -15.9126     0.0000    78.0000 </r>
       <r>   -15.8170     0.0000    78.0000 </r>
       <r>   -15.7214    41.8390    82.0000 </r>
       <r>   -15.6258     0.0000    82.0000 </r>
       <r>   -15.5302    20.9195    84.0000 </r>
       <r>   -15.4346     0.0306    84.0029 </r>
       <r>   -15.3390    41.8083    88.0000 </r>
       <r>   -15.2433     0.0000    88.0000 </r>
       <r>   -15.1477     0.0001    88.0000 </r>
       <r>   -15.0521    41.1110    91.9304 </r>
       <r>   -14.9565    19.4918    93.8635 </r>
       <r>   -14.8609    20.9195    96.0000 </r>
       <r>   -14.7653     4.7829    96.4573 </r>
       <r>   -14.6697    15.1168    98.1124 </r>
       <r>   -14.5741    29.9687   102.0000 </r>
       <r>   -14.4785     0.0000   102.0000 </r>
       <r>   -14.3829    41.8293   105.9991 </r>
       <r>   -14.2873    20.9194   108.0000 </r>
       <r>   -14.1917     0.0000   108.0000 </r>
       <r>   -14.0961     0.0000   108.0000 </r>
       <r>   -14.0005     0.0000   108.0000 </r>
       <r>   -13.9049     0.0000   108.0000 </r>
       <r>   -13.8093    41.8389   112.0000 </r>
       <r>   -13.7137    41.8390   116.0000 </r>
       <r>   -13.6181     0.0000   116.0000 </r>
       <r>   -13.5225     0.0000   116.0000 </r>
       <r>   -13.4269     0.0000   116.0000 </r>
       <r>   -13.3313     0.1136   116.0109 </r>
       <r>   -13.2357    21.2954   118.0468 </r>
       <r>   -13.1400     0.0000   120.0000 </r>
       <r>   -13.0444     0.0000   120.0000 </r>
       <r>   -12.9488     0.0000   120.0000 </r>
       <r>   -12.8532    21.6732   122.0721 </r>
       <r>   -12.7576    24.1385   125.1088 </r>
       <r>   -12.6620     6.9690   126.0000 </r>
       <r>   -12.5664    41.8390   130.0000 </r>
       <r>   -12.4708     0.0251   130.0024 </r>
       <r>   -12.3752    41.8139   134.0000 </r>
       <r>   -12.2796     0.0000   134.0000 </r>
       <r>   -12.1840     6.0129   134.5749 </r>
       <r>   -12.0884    11.0241   135.7208 </r>
       <r>   -11.9928     0.0000   136.0000 </r>
       <r>   -11.8972    24.1247   138.3064 </r>
       <r>   -11.8016    41.5823   143.0101 </r>
       <r>   -11.7060    25.2387   145.5464 </r>
       <r>   -11.6104     3.8340   146.0000 </r>
       <r>   -11.5148     0.0000   146.0000 </r>
       <r>   -11.4192     0.1195   146.0114 </r>
       <r>   -11.3236    25.1353   148.7711 </r>
       <r>   -11.2280    11.6934   150.3520 </r>
       <r>   -11.1323    24.4744   153.2409 </r>
       <r>   -11.0367    13.6304   154.9044 </r>
       <r>   -10.9411    28.0352   157.7809 </r>
       <r>   -10.8455    20.5389   159.9636 </r>
       <r>   -10.7499    23.7873   162.9417 </r>
       <r>   -10.6543     8.9436   166.0271 </r>
       <r>   -10.5587    29.5999   169.0978 </r>
       <r>   -10.4631    32.4970   172.6736 </r>
       <r>   -10.3675    35.8171   176.8254 </r>
       <r>   -10.2719     7.2965   178.0000 </r>
       <r>   -10.1763    43.4240   182.1515 </r>
       <r>   -10.0807    72.4122   189.5576 </r>
       <r>    -9.9851    49.5621   194.7387 </r>
       <r>    -9.8895    27.7814   198.6561 </r>
       <r>    -9.7939     0.0001   204.0000 </r>
       <r>    -9.6983    77.4476   211.4044 </r>
       <r>    -9.6027    43.6380   216.1722 </r>
       <r>    -9.5071     9.1319   218.0071 </r>
       <r>    -9.4115    59.9188   223.9976 </r>
       <r>    -9.3159     0.0000   224.0000 </r>
       <r>    -9.2203     0.0000   224.0000 </r>
       <r>    -9.1247    41.8383   227.9999 </r>
       <r>    -9.0290    41.8390   232.0000 </r>
       <r>    -8.9334     0.0000   232.0000 </r>
       <r>    -8.8378    40.8539   235.9058 </r>
       <r>    -8.7422    63.2146   242.0436 </r>
       <r>    -8.6466    14.6175   244.0000 </r>
       <r>    -8.5510     5.4364   244.5197 </r>
       <r>    -8.4554    15.9594   247.5258 </r>
       <r>    -8.3598    41.7980   251.9991 </r>
       <r>    -8.2642    41.8386   256.0000 </r>
       <r>    -8.1686     0.0000   256.0000 </r>
       <r>    -8.0730    20.9196   258.0000 </r>
       <r>    -7.9774    20.9194   260.0000 </r>
       <r>    -7.8818     0.0000   260.0000 </r>
       <r>    -7.7862     0.0010   260.0001 </r>
       <r>    -7.6906    42.6331   264.0760 </r>
       <r>    -7.5950    28.5108   268.0000 </r>
       <r>    -7.4994     0.0000   268.0000 </r>
       <r>    -7.4038     0.0000   268.0000 </r>
       <r>    -7.3082     0.0047   268.0004 </r>
       <r>    -7.2126    42.0228   272.0180 </r>
       <r>    -7.1170    64.0378   278.1403 </r>
       <r>    -7.0214     0.0000   282.0000 </r>
       <r>    -6.9257     0.0000   282.0000 </r>
       <r>    -6.8301    30.9110   284.9552 </r>
       <r>    -6.7345    25.0320   288.0000 </r>
       <r>    -6.6389     4.1974   288.4013 </r>
       <r>    -6.5433     0.0000   294.0000 </r>
       <r>    -6.4477     0.0000   294.0000 </r>
       <r>    -6.3521     0.0000   294.0000 </r>
       <r>    -6.2565    62.7564   299.9998 </r>
       <r>    -6.1609    62.7584   306.0000 </r>
       <r>    -6.0653     1.6227   306.1551 </r>
       <r>    -5.9697    17.1016   308.2687 </r>
       <r>    -5.8741     9.7548   310.0000 </r>
       <r>    -5.7785     0.0000   310.0000 </r>
       <r>    -5.6829     0.0000   310.0000 </r>
       <r>    -5.5873     0.0000   310.0000 </r>
       <r>    -5.4917     0.0000   310.0000 </r>
       <r>    -5.3961    11.4528   311.0949 </r>
       <r>    -5.3005    28.5285   315.5295 </r>
       <r>    -5.2049     0.0000   318.0000 </r>
       <r>    -5.1093     0.0000   318.0000 </r>
       <r>    -5.0137     0.0000   318.0000 </r>
       <r>    -4.9180     0.0000   318.0000 </r>
       <r>    -4.8224    62.7585   324.0000 </r>
       <r>    -4.7268     0.0000   324.0000 </r>
       <r>    -4.6312     0.0000   324.0000 </r>
       <r>    -4.5356     0.0000   324.0000 </r>
       <r>    -4.4400     0.0000   324.0000 </r>
       <r>    -4.3444     0.0000   324.0000 </r>
       <r>    -4.2488     0.0000   324.0000 </r>
       <r>    -4.1532     0.0000   324.0000 </r>
       <r>    -4.0576     0.0000   324.0000 </r>
       <r>    -3.9620     0.0000   324.0000 </r>
       <r>    -3.8664     0.0000   324.0000 </r>
       <r>    -3.7708     0.0000   324.0000 </r>
       <r>    -3.6752     0.0000   324.0000 </r>
       <r>    -3.5796     0.0000   324.0000 </r>
       <r>    -3.4840     0.0000   324.0000 </r>
       <r>    -3.3884     0.0000   324.0000 </r>
       <r>    -3.2928     0.0000   324.0000 </r>
       <r>    -3.1972     0.0000   324.0000 </r>
       <r>    -3.1016     0.0000   324.0000 </r>
       <r>    -3.0060     0.0000   324.0000 </r>
       <r>    -2.9104     0.0000   324.0000 </r>
       <r>    -2.8147     0.0000   324.0000 </r>
       <r>    -2.7191     0.0000   324.0000 </r>
       <r>    -2.6235     0.0000   324.0000 </r>
       <r>    -2.5279     0.0000   324.0000 </r>
       <r>    -2.4323     0.0000   324.0000 </r>
       <r>    -2.3367     0.0000   324.0000 </r>
       <r>    -2.2411     0.0000   324.0000 </r>
       <r>    -2.1455    42.6710   328.0795 </r>
       <r>    -2.0499    53.2426   333.9995 </r>
       <r>    -1.9543    41.8387   338.0000 </r>
       <r>    -1.8587     0.0000   338.0000 </r>
       <r>    -1.7631     0.0000   338.0000 </r>
       <r>    -1.6675     0.0000   338.0000 </r>
       <r>    -1.5719    44.1433   342.2203 </r>
       <r>    -1.4763     0.0365   344.0035 </r>
       <r>    -1.3807    20.8869   346.0004 </r>
       <r>    -1.2851    20.9156   348.0000 </r>
       <r>    -1.1895     0.0000   348.0000 </r>
       <r>    -1.0939    62.2327   353.9497 </r>
       <r>    -0.9983    11.1620   355.0671 </r>
       <r>    -0.9027    36.4031   360.0000 </r>
       <r>    -0.8070     0.0000   360.0000 </r>
       <r>    -0.7114     0.0000   360.0000 </r>
       <r>    -0.6158     0.0000   360.0000 </r>
       <r>    -0.5202     6.2152   360.5942 </r>
       <r>    -0.4246    10.8984   363.0419 </r>
       <r>    -0.3290    29.7450   366.2112 </r>
       <r>    -0.2334    16.6134   367.9557 </r>
       <r>    -0.1378    25.1423   370.4037 </r>
       <r>    -0.0422    39.9258   374.6177 </r>
       <r>     0.0534    29.6231   378.0004 </r>
       <r>     0.1490    41.9549   382.0115 </r>
       <r>     0.2446    62.2550   388.2582 </r>
       <r>     0.3402    47.8814   393.7120 </r>
       <r>     0.4358    44.6285   398.3352 </r>
       <r>     0.5314    50.5274   404.4352 </r>
       <r>     0.6270    50.3814   411.1531 </r>
       <r>     0.7226    55.4992   417.0404 </r>
       <r>     0.8182    87.1359   426.5328 </r>
       <r>     0.9138    87.8402   436.2010 </r>
       <r>     1.0094    73.7969   444.9910 </r>
       <r>     1.1050    16.6828   448.0000 </r>
       <r>     1.2006     0.0000   448.0000 </r>
       <r>     1.2963     0.0000   448.0000 </r>
       <r>     1.3919     0.0000   448.0000 </r>
       <r>     1.4875     0.0000   448.0000 </r>
       <r>     1.5831     0.0000   448.0000 </r>
       <r>     1.6787     0.0000   448.0000 </r>
       <r>     1.7743     0.0000   448.0000 </r>
       <r>     1.8699     0.0000   448.0000 </r>
       <r>     1.9655     0.0000   448.0000 </r>
       <r>     2.0611     0.0000   448.0000 </r>
       <r>     2.1567     0.0000   448.0000 </r>
       <r>     2.2523     0.0000   448.0000 </r>
       <r>     2.3479     0.0000   448.0000 </r>
      </set>
     </set>
    </array>
   </total>
  </dos>
 </calculation>
 <structure name="finalpos" >
  <crystal>
   <varray name="basis" >
    <v>      29.74384287      -0.00106351       0.00000000 </v>
    <v>      14.87100041      25.75945528       0.00000000 </v>
    <v>       0.00000000       0.00000000      20.00000000 </v>
   </varray>
   <i name="volume">  15324.02011281 </i>
   <varray name="rec_basis" >
    <v>       0.03361971      -0.01940875       0.00000000 </v>
    <v>       0.00000139       0.03881990       0.00000000 </v>
    <v>       0.00000000       0.00000000       0.05000000 </v>
   </varray>
  </crystal>
  <varray name="positions" >
   <v>       0.97374830       0.51805677       0.31822920 </v>
   <v>       0.92173924       0.57362927       0.35756105 </v>
   <v>       0.92175678       0.51448554       0.35762044 </v>
   <v>       0.88666818       0.48938629       0.49405577 </v>
   <v>       0.79202023       0.53631254       0.49786144 </v>
   <v>       0.88664775       0.63400693       0.49423862 </v>
   <v>       0.79198871       0.68168497       0.49804061 </v>
   <v>       0.68168497       0.79198871       0.49804061 </v>
   <v>       0.63400693       0.88664775       0.49423862 </v>
   <v>       0.53631254       0.79202023       0.49786144 </v>
   <v>       0.48938629       0.88666818       0.49405577 </v>
   <v>       0.53630809       0.68164768       0.49804307 </v>
   <v>       0.48934668       0.63394760       0.49413894 </v>
   <v>       0.63394760       0.48934668       0.49413894 </v>
   <v>       0.68164768       0.53630809       0.49804307 </v>
   <v>       0.71799983       0.57398310       0.49808994 </v>
   <v>       0.71799837       0.71799837       0.49790532 </v>
   <v>       0.57398310       0.71799983       0.49808994 </v>
   <v>       0.11996025       0.51731058       0.49588868 </v>
   <v>       0.21467702       0.47030444       0.49781595 </v>
   <v>       0.11993675       0.37270322       0.49601711 </v>
   <v>       0.21464560       0.32497709       0.49791803 </v>
   <v>       0.32497709       0.21464560       0.49791803 </v>
   <v>       0.37270322       0.11993675       0.49601711 </v>
   <v>       0.47030444       0.21467702       0.49781595 </v>
   <v>       0.51731058       0.11996025       0.49588868 </v>
   <v>       0.47030561       0.32497031       0.49790831 </v>
   <v>       0.51730325       0.37269207       0.49582421 </v>
   <v>       0.37269207       0.51730325       0.49582421 </v>
   <v>       0.32497031       0.47030561       0.49790831 </v>
   <v>       0.28865301       0.43265503       0.49751788 </v>
   <v>       0.28864298       0.28864298       0.49745107 </v>
   <v>       0.43265503       0.28865301       0.49751788 </v>
   <v>       0.47817610       0.47817610       0.38219119 </v>
   <v>       0.51815689       0.51815689       0.31809286 </v>
   <v>       0.57370700       0.51456908       0.35753900 </v>
   <v>       0.51456908       0.57370700       0.35753900 </v>
   <v>       0.47810616       0.05363991       0.38244763 </v>
   <v>       0.51805677       0.97374830       0.31822920 </v>
   <v>       0.51448554       0.92175678       0.35762044 </v>
   <v>       0.57362927       0.92173924       0.35756105 </v>
   <v>       0.05363991       0.47810616       0.38244763 </v>
   <v>       0.97669527       0.51662705       0.42593073 </v>
   <v>       0.95134216       0.52935674       0.48866227 </v>
   <v>       0.94723792       0.53132190       0.36119646 </v>
   <v>       0.72509232       0.64244625       0.49821912 </v>
   <v>       0.69691353       0.61614772       0.49829952 </v>
   <v>       0.64243933       0.64243933       0.49828352 </v>
   <v>       0.61614772       0.69691353       0.49829952 </v>
   <v>       0.64244625       0.72509232       0.49821912 </v>
   <v>       0.69691587       0.69691587       0.49820779 </v>
   <v>       0.61349874       0.61349874       0.49737684 </v>
   <v>       0.63941062       0.55883718       0.49669387 </v>
   <v>       0.61247939       0.53171618       0.49439160 </v>
   <v>       0.55815251       0.55815251       0.49284889 </v>
   <v>       0.53171618       0.61247939       0.49439160 </v>
   <v>       0.55883718       0.63941062       0.49669387 </v>
   <v>       0.78296623       0.61351872       0.49730010 </v>
   <v>       0.81171584       0.55885798       0.49658087 </v>
   <v>       0.86576148       0.53175572       0.49433673 </v>
   <v>       0.89363385       0.55821103       0.49288742 </v>
   <v>       0.86575040       0.61253243       0.49444067 </v>
   <v>       0.81170366       0.63944600       0.49667989 </v>
   <v>       0.61351872       0.78296623       0.49730010 </v>
   <v>       0.63944600       0.81170366       0.49667989 </v>
   <v>       0.61253243       0.86575040       0.49444067 </v>
   <v>       0.55821103       0.89363385       0.49288742 </v>
   <v>       0.53175572       0.86576148       0.49433673 </v>
   <v>       0.55885798       0.81171584       0.49658087 </v>
   <v>       0.28153621       0.36420217       0.49758701 </v>
   <v>       0.30972716       0.39049008       0.49757439 </v>
   <v>       0.36420189       0.36420189       0.49760721 </v>
   <v>       0.39049008       0.30972716       0.49757439 </v>
   <v>       0.36420217       0.28153621       0.49758701 </v>
   <v>       0.30972528       0.30972528       0.49754518 </v>
   <v>       0.39314302       0.39314302       0.49739694 </v>
   <v>       0.36721085       0.44780004       0.49717935 </v>
   <v>       0.39413028       0.47494180       0.49586332 </v>
   <v>       0.44845312       0.44845312       0.49471812 </v>
   <v>       0.47494180       0.39413028       0.49586332 </v>
   <v>       0.44780004       0.36721085       0.49717935 </v>
   <v>       0.22365523       0.39314547       0.49739316 </v>
   <v>       0.19493531       0.44780204       0.49717247 </v>
   <v>       0.14087271       0.47494817       0.49596165 </v>
   <v>       0.11301597       0.44847701       0.49494277 </v>
   <v>       0.14085555       0.39414965       0.49602124 </v>
   <v>       0.19491925       0.36722150       0.49722864 </v>
   <v>       0.39314547       0.22365523       0.49739316 </v>
   <v>       0.36722150       0.19491925       0.49722864 </v>
   <v>       0.39414965       0.14085555       0.49602124 </v>
   <v>       0.44847701       0.11301597       0.49494277 </v>
   <v>       0.47494817       0.14087271       0.49596165 </v>
   <v>       0.44780204       0.19493531       0.49717247 </v>
   <v>       0.47728561       0.47728561       0.49041677 </v>
   <v>       0.48968848       0.48968848       0.42805481 </v>
   <v>       0.51663604       0.51663604       0.42578625 </v>
   <v>       0.52929239       0.52929239       0.48853845 </v>
   <v>       0.53139420       0.53139420       0.36109338 </v>
   <v>       0.47732971       0.05534417       0.49069225 </v>
   <v>       0.48967073       0.03057791       0.42828800 </v>
   <v>       0.51662705       0.97669527       0.42593073 </v>
   <v>       0.52935674       0.95134216       0.48866227 </v>
   <v>       0.53132190       0.94723792       0.36119646 </v>
   <v>       0.05534417       0.47732971       0.49069225 </v>
   <v>       0.03057791       0.48967073       0.42828800 </v>
   <v>       0.97691092       0.51662126       0.54731112 </v>
   <v>       0.51647230       0.51647230       0.54715578 </v>
   <v>       0.49055293       0.49055293       0.54845463 </v>
   <v>       0.51662126       0.97691092       0.54731112 </v>
   <v>       0.49069382       0.02876155       0.54870264 </v>
   <v>       0.02876155       0.49069382       0.54870264 </v>
  </varray>
 </structure>
</modeling>
