<?xml version="1.0" encoding="ISO-8859-1"?>
<modeling>
 <generator>
  <i name="program" type="string">vasp </i>
  <i name="version" type="string">5.4.4.18Apr17-6-g9f103f2a35  </i>
  <i name="subversion" type="string">(build Jun 07 2020 16:50:00) complex            parallel </i>
  <i name="platform" type="string">LinuxIFC </i>
  <i name="date" type="string">2023 02 24 </i>
  <i name="time" type="string">03:06:51 </i>
 </generator>
 <incar>
  <i type="string" name="SYSTEM">Simulation for cell shape cell volume r</i>
  <i type="int" name="ISTART">     1</i>
  <i type="string" name="PREC">high</i>
  <i type="string" name="ALGO">48</i>
  <i type="int" name="ICHARG">    11</i>
  <i type="int" name="NELM">   200</i>
  <i type="int" name="IBRION">    -1</i>
  <i name="EDIFF">      0.00001000</i>
  <i name="EDIFFG">     -0.01000000</i>
  <i type="int" name="NSW">     0</i>
  <i type="int" name="ISIF">     2</i>
  <i name="ENCUT">    500.00000000</i>
  <i name="POTIM">      0.30000000</i>
  <i type="string" name="LREAL">A</i>
  <i type="int" name="ISMEAR">     0</i>
  <i name="SIGMA">      0.01000000</i>
  <i type="int" name="NWRITE">     0</i>
  <i type="logical" name="LWAVE"> F  </i>
  <i type="logical" name="LCHARG"> F  </i>
  <v type="int" name="KPOINT_BSE">    -1     0     0     0</v>
  <i type="int" name="NELM">   200</i>
  <i type="string" name="GGA">PE</i>
 </incar>
 <structure name="primitive_cell" >
  <crystal>
   <varray name="basis" >
    <v>      22.59570406      -0.00613524       0.00000000 </v>
    <v>     -11.30321079      19.59842641       0.00000000 </v>
    <v>       0.00000000       0.00000000      20.00000000 </v>
   </varray>
   <i name="volume">   8855.41790593 </i>
   <varray name="rec_basis" >
    <v>       0.04426313       0.02552835       0.00000000 </v>
    <v>       0.00001386       0.05103250       0.00000000 </v>
    <v>       0.00000000       0.00000000       0.05000000 </v>
   </varray>
  </crystal>
  <varray name="positions" >
   <v>       0.29241647      -0.24755939      -0.47931339 </v>
   <v>       0.31040208      -0.28426862      -0.47814582 </v>
   <v>       0.36961090      -0.16199726      -0.46500884 </v>
   <v>       0.25909574      -0.35305238      -0.47801234 </v>
   <v>       0.37945229      -0.26563299      -0.47938939 </v>
   <v>       0.17400502      -0.31999254      -0.48719706 </v>
   <v>       0.18655082      -0.36697106      -0.47978960 </v>
   <v>       0.41967476      -0.14428181      -0.47502784 </v>
   <v>       0.43797632      -0.19324433      -0.48289131 </v>
   <v>       0.31835870      -0.10615097      -0.49449841 </v>
   <v>       0.33895584      -0.09858336      -0.40793333 </v>
   <v>       0.27776989      -0.40337384      -0.47929901 </v>
   <v>       0.39701195      -0.31687069      -0.48058909 </v>
   <v>       0.35049840      -0.06997297      -0.45532653 </v>
   <v>       0.45925916      -0.07307914      -0.48116669 </v>
   <v>       0.34662821      -0.38583084      -0.48032539 </v>
   <v>       0.13760465      -0.43441343      -0.47326159 </v>
   <v>       0.49720014      -0.18088630      -0.49270612 </v>
   <v>       0.42547529      -0.03514684      -0.47235998 </v>
   <v>       0.24099917      -0.45798960      -0.48161543 </v>
   <v>       0.45165451      -0.29897659      -0.48388388 </v>
   <v>       0.15544694      -0.46690395      -0.46485982 </v>
   <v>       0.33370113      -0.03240320      -0.44971456 </v>
   <v>       0.06219830      -0.37466679      -0.49997839 </v>
   <v>       0.06631427      -0.46601639      -0.47900179 </v>
   <v>      -0.47069484      -0.03939642      -0.49645094 </v>
   <v>       0.03254014      -0.42970550      -0.49391699 </v>
   <v>      -0.44529061      -0.06904783       0.49735285 </v>
   <v>       0.36061789      -0.44423121      -0.48429398 </v>
   <v>       0.46232333       0.03558617      -0.47987336 </v>
   <v>       0.46043487      -0.37581503      -0.46731082 </v>
   <v>       0.31370425       0.49652510      -0.49352590 </v>
   <v>       0.43696095       0.06531380      -0.47371128 </v>
   <v>       0.42806569      -0.42582332      -0.47727525 </v>
   <v>      -0.43489854       0.03106735       0.49647295 </v>
   <v>       0.02840956       0.46230556      -0.47036158 </v>
   <v>       0.09247282       0.43934265      -0.40673300 </v>
   <v>       0.09928203       0.42626307      -0.49344430 </v>
   <v>      -0.46775634       0.06933557      -0.49550856 </v>
   <v>      -0.03803479      -0.46440550       0.49925650 </v>
   <v>       0.06340889       0.42223723      -0.45389000 </v>
   <v>      -0.06381425      -0.43566373       0.48773026 </v>
   <v>      -0.38041251       0.05677161       0.48463922 </v>
   <v>      -0.43184360      -0.32483355      -0.49418934 </v>
   <v>      -0.44675267      -0.34653330      -0.40796008 </v>
   <v>      -0.04244058       0.42840384      -0.47752235 </v>
   <v>       0.45966179      -0.46547598      -0.48330323 </v>
   <v>      -0.07630490       0.46450745      -0.49278785 </v>
   <v>       0.02582272       0.36791146      -0.44816059 </v>
   <v>      -0.42776266       0.14046940       0.49757833 </v>
   <v>      -0.42876048      -0.35756335      -0.45506168 </v>
   <v>       0.36851801       0.43986248       0.49270340 </v>
   <v>       0.49347589       0.17613038      -0.49030304 </v>
   <v>      -0.46880876      -0.43220560      -0.47305217 </v>
   <v>       0.42341884       0.46485404      -0.49977907 </v>
   <v>      -0.07217146       0.37336342      -0.47134177 </v>
   <v>      -0.37739340       0.15780501       0.48940741 </v>
   <v>      -0.44670695       0.18918663      -0.49735020 </v>
   <v>      -0.37453495      -0.34112750      -0.44842094 </v>
   <v>      -0.14754073       0.43328875      -0.49960191 </v>
   <v>      -0.16490375       0.46614375       0.49152131 </v>
   <v>      -0.43503204      -0.46928427      -0.47983547 </v>
   <v>       0.45797886       0.42883838       0.49379343 </v>
   <v>      -0.38879621       0.26189961      -0.49999626 </v>
   <v>      -0.19622154       0.36564668      -0.49441697 </v>
   <v>      -0.18306891       0.31911444      -0.48644380 </v>
   <v>      -0.30082866       0.24543721      -0.49653213 </v>
   <v>      -0.47113215       0.46108431      -0.49631726 </v>
   <v>      -0.38010003      -0.44432623      -0.47235674 </v>
   <v>       0.42929715       0.37465701       0.48098321 </v>
   <v>      -0.46229006       0.29372084      -0.49902751 </v>
   <v>      -0.25261099       0.45490928      -0.49582404 </v>
   <v>      -0.31951078       0.28153934      -0.49895471 </v>
   <v>      -0.40742296       0.31239871       0.49975946 </v>
   <v>      -0.26899434       0.35062336      -0.49839564 </v>
   <v>      -0.28867411       0.40015941      -0.49850413 </v>
   <v>      -0.44017684       0.42078740       0.49762567 </v>
   <v>      -0.32593788       0.49907222      -0.48842625 </v>
   <v>      -0.47317428       0.37065161       0.48862342 </v>
   <v>      -0.35781417       0.38158965      -0.49952182 </v>
   <v>      -0.37261043       0.43946991      -0.49645093 </v>
  </varray>
 </structure>
 <varray name="primitive_index" >
  <v type="int" >        1 </v>
  <v type="int" >       34 </v>
  <v type="int" >       11 </v>
  <v type="int" >       33 </v>
  <v type="int" >       57 </v>
  <v type="int" >       72 </v>
  <v type="int" >       37 </v>
  <v type="int" >       76 </v>
  <v type="int" >       58 </v>
  <v type="int" >        9 </v>
  <v type="int" >       10 </v>
  <v type="int" >       32 </v>
  <v type="int" >       35 </v>
  <v type="int" >       48 </v>
  <v type="int" >       47 </v>
  <v type="int" >       31 </v>
  <v type="int" >       78 </v>
  <v type="int" >       70 </v>
  <v type="int" >       46 </v>
  <v type="int" >        3 </v>
  <v type="int" >        2 </v>
  <v type="int" >       21 </v>
  <v type="int" >        8 </v>
  <v type="int" >       28 </v>
  <v type="int" >       55 </v>
  <v type="int" >       62 </v>
  <v type="int" >       68 </v>
  <v type="int" >       22 </v>
  <v type="int" >       36 </v>
  <v type="int" >       45 </v>
  <v type="int" >       16 </v>
  <v type="int" >       71 </v>
  <v type="int" >        7 </v>
  <v type="int" >       77 </v>
  <v type="int" >       63 </v>
  <v type="int" >       54 </v>
  <v type="int" >       20 </v>
  <v type="int" >       19 </v>
  <v type="int" >       61 </v>
  <v type="int" >       69 </v>
  <v type="int" >       56 </v>
  <v type="int" >       29 </v>
  <v type="int" >       23 </v>
  <v type="int" >       14 </v>
  <v type="int" >       15 </v>
  <v type="int" >       53 </v>
  <v type="int" >       51 </v>
  <v type="int" >       67 </v>
  <v type="int" >       18 </v>
  <v type="int" >       79 </v>
  <v type="int" >       52 </v>
  <v type="int" >       25 </v>
  <v type="int" >       73 </v>
  <v type="int" >       50 </v>
  <v type="int" >       65 </v>
  <v type="int" >       17 </v>
  <v type="int" >       24 </v>
  <v type="int" >       60 </v>
  <v type="int" >       13 </v>
  <v type="int" >       81 </v>
  <v type="int" >       30 </v>
  <v type="int" >       49 </v>
  <v type="int" >       66 </v>
  <v type="int" >       59 </v>
  <v type="int" >       44 </v>
  <v type="int" >       75 </v>
  <v type="int" >        4 </v>
  <v type="int" >       64 </v>
  <v type="int" >       12 </v>
  <v type="int" >       26 </v>
  <v type="int" >        5 </v>
  <v type="int" >        6 </v>
  <v type="int" >       41 </v>
  <v type="int" >       42 </v>
  <v type="int" >       40 </v>
  <v type="int" >       39 </v>
  <v type="int" >       80 </v>
  <v type="int" >       74 </v>
  <v type="int" >       27 </v>
  <v type="int" >       38 </v>
  <v type="int" >       43 </v>
 </varray>
 <kpoints>
  <generation param="listgenerated">
   <i name="divisions" type="int">      20 </i>
   <v>       0.00000000       0.00000000       0.00000000 </v>
   <v>       0.50000000       0.00000000       0.00000000 </v>
   <v>       0.33333333       0.33333333       0.00000000 </v>
   <v>       0.00000000       0.00000000       0.00000000 </v>
  </generation>
  <varray name="kpointlist" >
   <v>       0.00000000       0.00000000       0.00000000 </v>
   <v>       0.02631579       0.00000000       0.00000000 </v>
   <v>       0.05263158       0.00000000       0.00000000 </v>
   <v>       0.07894737       0.00000000       0.00000000 </v>
   <v>       0.10526316       0.00000000       0.00000000 </v>
   <v>       0.13157895       0.00000000       0.00000000 </v>
   <v>       0.15789474       0.00000000       0.00000000 </v>
   <v>       0.18421053       0.00000000       0.00000000 </v>
   <v>       0.21052632       0.00000000       0.00000000 </v>
   <v>       0.23684211       0.00000000       0.00000000 </v>
   <v>       0.26315789       0.00000000       0.00000000 </v>
   <v>       0.28947368       0.00000000       0.00000000 </v>
   <v>       0.31578947       0.00000000       0.00000000 </v>
   <v>       0.34210526       0.00000000       0.00000000 </v>
   <v>       0.36842105       0.00000000       0.00000000 </v>
   <v>       0.39473684       0.00000000       0.00000000 </v>
   <v>       0.42105263       0.00000000       0.00000000 </v>
   <v>       0.44736842       0.00000000       0.00000000 </v>
   <v>       0.47368421       0.00000000       0.00000000 </v>
   <v>       0.50000000       0.00000000       0.00000000 </v>
   <v>       0.50000000       0.00000000       0.00000000 </v>
   <v>       0.49122807       0.01754386       0.00000000 </v>
   <v>       0.48245614       0.03508772       0.00000000 </v>
   <v>       0.47368421       0.05263158       0.00000000 </v>
   <v>       0.46491228       0.07017544       0.00000000 </v>
   <v>       0.45614035       0.08771930       0.00000000 </v>
   <v>       0.44736842       0.10526316       0.00000000 </v>
   <v>       0.43859649       0.12280702       0.00000000 </v>
   <v>       0.42982456       0.14035088       0.00000000 </v>
   <v>       0.42105263       0.15789474       0.00000000 </v>
   <v>       0.41228070       0.17543860       0.00000000 </v>
   <v>       0.40350877       0.19298246       0.00000000 </v>
   <v>       0.39473684       0.21052632       0.00000000 </v>
   <v>       0.38596491       0.22807018       0.00000000 </v>
   <v>       0.37719298       0.24561404       0.00000000 </v>
   <v>       0.36842105       0.26315789       0.00000000 </v>
   <v>       0.35964912       0.28070175       0.00000000 </v>
   <v>       0.35087719       0.29824561       0.00000000 </v>
   <v>       0.34210526       0.31578947       0.00000000 </v>
   <v>       0.33333333       0.33333333       0.00000000 </v>
   <v>       0.33333333       0.33333333       0.00000000 </v>
   <v>       0.31578947       0.31578947       0.00000000 </v>
   <v>       0.29824561       0.29824561       0.00000000 </v>
   <v>       0.28070175       0.28070175       0.00000000 </v>
   <v>       0.26315789       0.26315789       0.00000000 </v>
   <v>       0.24561404       0.24561404       0.00000000 </v>
   <v>       0.22807018       0.22807018       0.00000000 </v>
   <v>       0.21052632       0.21052632       0.00000000 </v>
   <v>       0.19298246       0.19298246       0.00000000 </v>
   <v>       0.17543860       0.17543860       0.00000000 </v>
   <v>       0.15789474       0.15789474       0.00000000 </v>
   <v>       0.14035088       0.14035088       0.00000000 </v>
   <v>       0.12280702       0.12280702       0.00000000 </v>
   <v>       0.10526316       0.10526316       0.00000000 </v>
   <v>       0.08771930       0.08771930       0.00000000 </v>
   <v>       0.07017544       0.07017544       0.00000000 </v>
   <v>       0.05263158       0.05263158       0.00000000 </v>
   <v>       0.03508772       0.03508772       0.00000000 </v>
   <v>       0.01754386       0.01754386       0.00000000 </v>
   <v>       0.00000000       0.00000000       0.00000000 </v>
  </varray>
  <varray name="weights" >
   <v>       0.01666667 </v>
   <v>       0.01666667 </v>
   <v>       0.01666667 </v>
   <v>       0.01666667 </v>
   <v>       0.01666667 </v>
   <v>       0.01666667 </v>
   <v>       0.01666667 </v>
   <v>       0.01666667 </v>
   <v>       0.01666667 </v>
   <v>       0.01666667 </v>
   <v>       0.01666667 </v>
   <v>       0.01666667 </v>
   <v>       0.01666667 </v>
   <v>       0.01666667 </v>
   <v>       0.01666667 </v>
   <v>       0.01666667 </v>
   <v>       0.01666667 </v>
   <v>       0.01666667 </v>
   <v>       0.01666667 </v>
   <v>       0.01666667 </v>
   <v>       0.01666667 </v>
   <v>       0.01666667 </v>
   <v>       0.01666667 </v>
   <v>       0.01666667 </v>
   <v>       0.01666667 </v>
   <v>       0.01666667 </v>
   <v>       0.01666667 </v>
   <v>       0.01666667 </v>
   <v>       0.01666667 </v>
   <v>       0.01666667 </v>
   <v>       0.01666667 </v>
   <v>       0.01666667 </v>
   <v>       0.01666667 </v>
   <v>       0.01666667 </v>
   <v>       0.01666667 </v>
   <v>       0.01666667 </v>
   <v>       0.01666667 </v>
   <v>       0.01666667 </v>
   <v>       0.01666667 </v>
   <v>       0.01666667 </v>
   <v>       0.01666667 </v>
   <v>       0.01666667 </v>
   <v>       0.01666667 </v>
   <v>       0.01666667 </v>
   <v>       0.01666667 </v>
   <v>       0.01666667 </v>
   <v>       0.01666667 </v>
   <v>       0.01666667 </v>
   <v>       0.01666667 </v>
   <v>       0.01666667 </v>
   <v>       0.01666667 </v>
   <v>       0.01666667 </v>
   <v>       0.01666667 </v>
   <v>       0.01666667 </v>
   <v>       0.01666667 </v>
   <v>       0.01666667 </v>
   <v>       0.01666667 </v>
   <v>       0.01666667 </v>
   <v>       0.01666667 </v>
   <v>       0.01666667 </v>
  </varray>
 </kpoints>
 <parameters>
  <separator name="general" >
   <i type="string" name="SYSTEM">Simulation for cell shape cell volume r</i>
   <i type="logical" name="LCOMPAT"> F  </i>
  </separator>
  <separator name="electronic" >
   <i type="string" name="PREC">high</i>
   <i name="ENMAX">    500.00000000</i>
   <i name="ENAUG">    644.87300000</i>
   <i name="EDIFF">      0.00001000</i>
   <i type="int" name="IALGO">    38</i>
   <i type="int" name="IWAVPR">    10</i>
   <i type="int" name="NBANDS">   176</i>
   <i name="NELECT">    252.00000000</i>
   <i type="int" name="TURBO">     0</i>
   <i type="int" name="IRESTART">     0</i>
   <i type="int" name="NREBOOT">     0</i>
   <i type="int" name="NMIN">     0</i>
   <i name="EREF">      0.00000000</i>
   <separator name="electronic smearing" >
    <i type="int" name="ISMEAR">     0</i>
    <i name="SIGMA">      0.01000000</i>
    <i name="KSPACING">      0.50000000</i>
    <i type="logical" name="KGAMMA"> T  </i>
   </separator>
   <separator name="electronic projectors" >
    <i type="logical" name="LREAL"> T  </i>
    <v name="ROPT">     -0.00040000     -0.00040000     -0.00040000     -0.00040000</v>
    <i type="int" name="LMAXPAW">  -100</i>
    <i type="int" name="LMAXMIX">     2</i>
    <i type="logical" name="NLSPLINE"> F  </i>
   </separator>
   <separator name="electronic startup" >
    <i type="int" name="ISTART">     1</i>
    <i type="int" name="ICHARG">    11</i>
    <i type="int" name="INIWAV">     1</i>
   </separator>
   <separator name="electronic spin" >
    <i type="int" name="ISPIN">     1</i>
    <i type="logical" name="LNONCOLLINEAR"> F  </i>
    <v name="MAGMOM">      1.00000000      1.00000000      1.00000000      1.00000000      1.00000000      1.00000000      1.00000000      1.00000000      1.00000000      1.00000000      1.00000000      1.00000000      1.00000000      1.00000000      1.00000000      1.00000000      1.00000000      1.00000000      1.00000000      1.00000000
      1.00000000      1.00000000      1.00000000      1.00000000      1.00000000      1.00000000      1.00000000      1.00000000      1.00000000      1.00000000      1.00000000      1.00000000      1.00000000      1.00000000      1.00000000      1.00000000      1.00000000      1.00000000      1.00000000      1.00000000
      1.00000000      1.00000000      1.00000000      1.00000000      1.00000000      1.00000000      1.00000000      1.00000000      1.00000000      1.00000000      1.00000000      1.00000000      1.00000000      1.00000000      1.00000000      1.00000000      1.00000000      1.00000000      1.00000000      1.00000000
      1.00000000      1.00000000      1.00000000      1.00000000      1.00000000      1.00000000      1.00000000      1.00000000      1.00000000      1.00000000      1.00000000      1.00000000      1.00000000      1.00000000      1.00000000      1.00000000      1.00000000      1.00000000      1.00000000      1.00000000
      1.00000000</v>
    <i name="NUPDOWN">     -1.00000000</i>
    <i type="logical" name="LSORBIT"> F  </i>
    <v name="SAXIS">      0.00000000      0.00000000      1.00000000</v>
    <i type="logical" name="LSPIRAL"> F  </i>
    <v name="QSPIRAL">      0.00000000      0.00000000      0.00000000</v>
    <i type="logical" name="LZEROZ"> F  </i>
   </separator>
   <separator name="electronic exchange-correlation" >
    <i type="logical" name="LASPH"> F  </i>
    <i type="logical" name="LMETAGGA"> F  </i>
   </separator>
   <separator name="electronic convergence" >
    <i type="int" name="NELM">   200</i>
    <i type="int" name="NELMDL">     0</i>
    <i type="int" name="NELMIN">     2</i>
    <i name="ENINI">    500.00000000</i>
    <separator name="electronic convergence detail" >
     <i type="logical" name="LDIAG"> T  </i>
     <i type="logical" name="LSUBROT"> F  </i>
     <i name="WEIMIN">      0.00000000</i>
     <i name="EBREAK">      0.00000001</i>
     <i name="DEPER">      0.30000000</i>
     <i type="int" name="NRMM">     4</i>
     <i name="TIME">      0.40000000</i>
    </separator>
   </separator>
   <separator name="electronic mixer" >
    <i name="AMIX">      0.40000000</i>
    <i name="BMIX">      1.00000000</i>
    <i name="AMIN">      0.10000000</i>
    <i name="AMIX_MAG">      1.60000000</i>
    <i name="BMIX_MAG">      1.00000000</i>
    <separator name="electronic mixer details" >
     <i type="int" name="IMIX">     4</i>
     <i type="logical" name="MIXFIRST"> F  </i>
     <i type="int" name="MAXMIX">   -45</i>
     <i name="WC">    100.00000000</i>
     <i type="int" name="INIMIX">     1</i>
     <i type="int" name="MIXPRE">     1</i>
     <i type="int" name="MREMOVE">     5</i>
    </separator>
   </separator>
   <separator name="electronic dipolcorrection" >
    <i type="logical" name="LDIPOL"> F  </i>
    <i type="logical" name="LMONO"> F  </i>
    <i type="int" name="IDIPOL">     0</i>
    <i name="EPSILON">      1.00000000</i>
    <v name="DIPOL">   -100.00000000   -100.00000000   -100.00000000</v>
    <i name="EFIELD">      0.00000000</i>
   </separator>
  </separator>
  <separator name="grids" >
   <i type="int" name="NGX">   168</i>
   <i type="int" name="NGY">   168</i>
   <i type="int" name="NGZ">   150</i>
   <i type="int" name="NGXF">   250</i>
   <i type="int" name="NGYF">   250</i>
   <i type="int" name="NGZF">   224</i>
   <i type="logical" name="ADDGRID"> F  </i>
  </separator>
  <separator name="ionic" >
   <i type="int" name="NSW">     0</i>
   <i type="int" name="IBRION">    -1</i>
   <i type="int" name="MDALGO">     0</i>
   <i type="int" name="ISIF">     2</i>
   <i name="PSTRESS">      0.00000000</i>
   <i name="EDIFFG">     -0.01000000</i>
   <i type="int" name="NFREE">     0</i>
   <i name="POTIM">      0.30000000</i>
   <i name="SMASS">     -3.00000000</i>
   <i name="SCALEE">      1.00000000</i>
  </separator>
  <separator name="ionic md" >
   <i name="TEBEG">      0.00010000</i>
   <i name="TEEND">      0.00010000</i>
   <i type="int" name="NBLOCK">     1</i>
   <i type="int" name="KBLOCK">     1</i>
   <i type="int" name="NPACO">   256</i>
   <i name="APACO">     16.00000000</i>
  </separator>
  <separator name="symmetry" >
   <i type="int" name="ISYM">     2</i>
   <i name="SYMPREC">      0.00001000</i>
  </separator>
  <separator name="dos" >
   <i type="int" name="LORBIT">     0</i>
   <v name="RWIGS">     -1.00000000     -1.00000000     -1.00000000     -1.00000000</v>
   <i type="int" name="NEDOS">   301</i>
   <i name="EMIN">     10.00000000</i>
   <i name="EMAX">    -10.00000000</i>
   <i name="EFERMI">      0.00000000</i>
  </separator>
  <separator name="writing" >
   <i type="int" name="NWRITE">     0</i>
   <i type="logical" name="LWAVE"> F  </i>
   <i type="logical" name="LDOWNSAMPLE"> F  </i>
   <i type="logical" name="LCHARG"> F  </i>
   <i type="logical" name="LPARD"> F  </i>
   <i type="logical" name="LVTOT"> F  </i>
   <i type="logical" name="LVHAR"> F  </i>
   <i type="logical" name="LELF"> F  </i>
   <i type="logical" name="LOPTICS"> F  </i>
   <v name="STM">      0.00000000      0.00000000      0.00000000      0.00000000      0.00000000      0.00000000      0.00000000</v>
  </separator>
  <separator name="performance" >
   <i type="int" name="NPAR">    16</i>
   <i type="int" name="NSIM">     4</i>
   <i type="int" name="NBLK">    -1</i>
   <i type="logical" name="LPLANE"> T  </i>
   <i type="logical" name="LSCALAPACK"> T  </i>
   <i type="logical" name="LSCAAWARE"> F  </i>
   <i type="logical" name="LSCALU"> F  </i>
   <i type="logical" name="LASYNC"> F  </i>
   <i type="logical" name="LORBITALREAL"> F  </i>
  </separator>
  <separator name="miscellaneous" >
   <i type="int" name="IDIOT">     3</i>
   <i type="int" name="ISPECIAL">     0</i>
   <i type="logical" name="LMUSIC"> F  </i>
   <v name="POMASS">      1.00000000     12.01100000     16.00000000     14.00100000</v>
   <v name="DARWINR">      0.00000000      0.00000000      0.00000000      0.00000000</v>
   <v name="DARWINV">      1.00000000      1.00000000      1.00000000      1.00000000</v>
   <i type="logical" name="LCORR"> T  </i>
  </separator>
  <i type="logical" name="GGA_COMPAT"> T  </i>
  <i type="logical" name="LBERRY"> F  </i>
  <i type="int" name="ICORELEVEL">     0</i>
  <i type="logical" name="LDAU"> F  </i>
  <i type="int" name="I_CONSTRAINED_M">     0</i>
  <separator name="electronic exchange-correlation" >
   <i type="string" name="GGA">PE</i>
   <i type="int" name="VOSKOWN">     0</i>
   <i type="logical" name="LHFCALC"> F  </i>
   <i type="string" name="PRECFOCK"></i>
   <i type="logical" name="LSYMGRAD"> F  </i>
   <i type="logical" name="LHFONE"> F  </i>
   <i type="logical" name="LRHFCALC"> F  </i>
   <i type="logical" name="LTHOMAS"> F  </i>
   <i type="logical" name="LMODELHF"> F  </i>
   <i name="ENCUT4O">     -1.00000000</i>
   <i type="int" name="EXXOEP">     0</i>
   <i type="int" name="FOURORBIT">     0</i>
   <i name="AEXX">      0.00000000</i>
   <i name="HFALPHA">      0.00000000</i>
   <i name="MCALPHA">      0.00000000</i>
   <i name="ALDAX">      1.00000000</i>
   <i name="AGGAX">      1.00000000</i>
   <i name="ALDAC">      1.00000000</i>
   <i name="AGGAC">      1.00000000</i>
   <i type="int" name="NKREDX">     1</i>
   <i type="int" name="NKREDY">     1</i>
   <i type="int" name="NKREDZ">     1</i>
   <i type="logical" name="SHIFTRED"> F  </i>
   <i type="logical" name="ODDONLY"> F  </i>
   <i type="logical" name="EVENONLY"> F  </i>
   <i type="int" name="LMAXFOCK">     0</i>
   <i type="int" name="NMAXFOCKAE">     0</i>
   <i type="logical" name="LFOCKAEDFT"> F  </i>
   <i name="HFSCREEN">      0.00000000</i>
   <i name="HFSCREENC">      0.00000000</i>
   <i type="int" name="NBANDSGWLOW">     0</i>
  </separator>
  <separator name="vdW DFT" >
   <i type="logical" name="LUSE_VDW"> F  </i>
   <i name="Zab_VDW">     -0.84910000</i>
   <i name="PARAM1">      0.12340000</i>
   <i name="PARAM2">      1.00000000</i>
   <i name="PARAM3">      0.00000000</i>
  </separator>
  <separator name="model GW" >
   <i type="int" name="MODEL_GW">     0</i>
   <i name="MODEL_EPS0">     65.59568819</i>
   <i name="MODEL_ALPHA">      1.00000000</i>
  </separator>
  <separator name="linear response parameters" >
   <i type="logical" name="LEPSILON"> F  </i>
   <i type="logical" name="LRPA"> F  </i>
   <i type="logical" name="LNABLA"> F  </i>
   <i type="logical" name="LVEL"> F  </i>
   <i type="int" name="KINTER">     0</i>
   <i name="CSHIFT">      0.10000000</i>
   <i name="OMEGAMAX">     -1.00000000</i>
   <i name="DEG_THRESHOLD">      0.00200000</i>
   <i name="RTIME">     -0.10000000</i>
   <i name="WPLASMAI">      0.00000000</i>
   <v name="DFIELD">      0.00000000      0.00000000      0.00000000</v>
   <v name="WPLASMA">      0.00000000      0.00000000      0.00000000      0.00000000      0.00000000      0.00000000      0.00000000      0.00000000      0.00000000</v>
  </separator>
  <separator name="orbital magnetization" >
   <i type="logical" name="NUCIND"> F  </i>
   <v name="MAGPOS">      0.00000000      0.00000000      0.00000000</v>
   <i type="logical" name="LNICSALL"> T  </i>
   <i type="logical" name="ORBITALMAG"> F  </i>
   <i type="logical" name="LMAGBLOCH"> F  </i>
   <i type="logical" name="LCHIMAG"> F  </i>
   <i type="logical" name="LGAUGE"> T  </i>
   <i type="int" name="MAGATOM">     0</i>
   <v name="MAGDIPOL">      0.00000000      0.00000000      0.00000000</v>
   <v name="AVECCONST">      0.00000000      0.00000000      0.00000000</v>
  </separator>
  <separator name="response functions" >
   <i type="logical" name="LADDER"> F  </i>
   <i type="logical" name="LRPAFORCE"> F  </i>
   <i type="logical" name="LFXC"> F  </i>
   <i type="logical" name="LHARTREE"> T  </i>
   <i type="int" name="IBSE">     0</i>
   <v type="int" name="KPOINT">    -1     0     0     0</v>
   <i type="logical" name="LTCTE"> F  </i>
   <i type="logical" name="LTETE"> F  </i>
   <i type="logical" name="LTRIPLET"> F  </i>
   <i type="logical" name="LFXCEPS"> F  </i>
   <i type="logical" name="LFXHEG"> F  </i>
   <i type="int" name="NATURALO">     2</i>
   <i type="logical" name="L2ORDER"> F  </i>
   <i type="logical" name="LMP2LT"> F  </i>
   <i type="logical" name="LUSEW"> F  </i>
   <i name="ENCUTGW">     -2.00000000</i>
   <i name="ENCUTGWSOFT">     -2.00000000</i>
   <i name="ENCUTLF">     -1.00000000</i>
   <i type="int" name="LMAXMP2">    -1</i>
   <i name="SCISSOR">      0.00000000</i>
   <i type="int" name="NOMEGA">     0</i>
   <i type="int" name="NOMEGAR">     0</i>
   <i type="int" name="NBANDSGW">    -1</i>
   <i type="int" name="NBANDSO">    -1</i>
   <i type="int" name="NBANDSV">    -1</i>
   <i type="int" name="NELM">   200</i>
   <i type="int" name="NELMHF">     1</i>
   <i type="int" name="DIM">     3</i>
   <i type="int" name="ANTIRES">     0</i>
   <i name="OMEGAMAX">    -30.00000000</i>
   <i name="OMEGAMIN">    -30.00000000</i>
   <i name="OMEGATL">   -200.00000000</i>
   <i type="int" name="OMEGAGRID">   140</i>
   <i name="CSHIFT">     -0.10000000</i>
   <i type="logical" name="SELFENERGY"> F  </i>
   <i type="logical" name="LSPECTRAL"> F  </i>
   <i type="logical" name="LSPECTRALGW"> F  </i>
   <i type="logical" name="LSINGLES"> F  </i>
   <i type="logical" name="LFERMIGW"> F  </i>
   <i type="logical" name="ODDONLYGW"> F  </i>
   <i type="logical" name="EVENONLYGW"> F  </i>
   <i type="int" name="NKREDLFX">     1</i>
   <i type="int" name="NKREDLFY">     1</i>
   <i type="int" name="NKREDLFZ">     1</i>
   <i type="int" name="MAXMEM">  2800</i>
   <i type="int" name="TELESCOPE">     0</i>
   <i type="int" name="TAUPAR">     1</i>
   <i type="int" name="OMEGAPAR">    -1</i>
   <i name="LAMBDA">      1.00000000</i>
  </separator>
  <separator name="External order field" >
   <i name="OFIELD_KAPPA">      0.00000000</i>
   <v name="OFIELD_K">      0.00000000      0.00000000      0.00000000</v>
   <i name="OFIELD_Q6_NEAR">      0.00000000</i>
   <i name="OFIELD_Q6_FAR">      0.00000000</i>
   <i name="OFIELD_A">      0.00000000</i>
  </separator>
  <separator name="solvation model" >
   <i type="logical" name="LSOL"> F  </i>
  </separator>
 </parameters>
 <atominfo>
  <atoms>      81 </atoms>
  <types>       4 </types>
  <array name="atoms" >
   <dimension dim="1">ion</dimension>
   <field type="string">element</field>
   <field type="int">atomtype</field>
   <set>
    <rc><c>H </c><c>   1</c></rc>
    <rc><c>H </c><c>   1</c></rc>
    <rc><c>H </c><c>   1</c></rc>
    <rc><c>H </c><c>   1</c></rc>
    <rc><c>H </c><c>   1</c></rc>
    <rc><c>H </c><c>   1</c></rc>
    <rc><c>H </c><c>   1</c></rc>
    <rc><c>H </c><c>   1</c></rc>
    <rc><c>H </c><c>   1</c></rc>
    <rc><c>H </c><c>   1</c></rc>
    <rc><c>H </c><c>   1</c></rc>
    <rc><c>H </c><c>   1</c></rc>
    <rc><c>H </c><c>   1</c></rc>
    <rc><c>H </c><c>   1</c></rc>
    <rc><c>H </c><c>   1</c></rc>
    <rc><c>H </c><c>   1</c></rc>
    <rc><c>H </c><c>   1</c></rc>
    <rc><c>H </c><c>   1</c></rc>
    <rc><c>H </c><c>   1</c></rc>
    <rc><c>H </c><c>   1</c></rc>
    <rc><c>H </c><c>   1</c></rc>
    <rc><c>H </c><c>   1</c></rc>
    <rc><c>H </c><c>   1</c></rc>
    <rc><c>H </c><c>   1</c></rc>
    <rc><c>H </c><c>   1</c></rc>
    <rc><c>H </c><c>   1</c></rc>
    <rc><c>H </c><c>   1</c></rc>
    <rc><c>H </c><c>   1</c></rc>
    <rc><c>H </c><c>   1</c></rc>
    <rc><c>H </c><c>   1</c></rc>
    <rc><c>C </c><c>   2</c></rc>
    <rc><c>C </c><c>   2</c></rc>
    <rc><c>C </c><c>   2</c></rc>
    <rc><c>C </c><c>   2</c></rc>
    <rc><c>C </c><c>   2</c></rc>
    <rc><c>C </c><c>   2</c></rc>
    <rc><c>C </c><c>   2</c></rc>
    <rc><c>C </c><c>   2</c></rc>
    <rc><c>C </c><c>   2</c></rc>
    <rc><c>C </c><c>   2</c></rc>
    <rc><c>C </c><c>   2</c></rc>
    <rc><c>C </c><c>   2</c></rc>
    <rc><c>C </c><c>   2</c></rc>
    <rc><c>C </c><c>   2</c></rc>
    <rc><c>C </c><c>   2</c></rc>
    <rc><c>C </c><c>   2</c></rc>
    <rc><c>C </c><c>   2</c></rc>
    <rc><c>C </c><c>   2</c></rc>
    <rc><c>C </c><c>   2</c></rc>
    <rc><c>C </c><c>   2</c></rc>
    <rc><c>C </c><c>   2</c></rc>
    <rc><c>C </c><c>   2</c></rc>
    <rc><c>C </c><c>   2</c></rc>
    <rc><c>C </c><c>   2</c></rc>
    <rc><c>C </c><c>   2</c></rc>
    <rc><c>C </c><c>   2</c></rc>
    <rc><c>C </c><c>   2</c></rc>
    <rc><c>C </c><c>   2</c></rc>
    <rc><c>C </c><c>   2</c></rc>
    <rc><c>C </c><c>   2</c></rc>
    <rc><c>C </c><c>   2</c></rc>
    <rc><c>C </c><c>   2</c></rc>
    <rc><c>C </c><c>   2</c></rc>
    <rc><c>C </c><c>   2</c></rc>
    <rc><c>C </c><c>   2</c></rc>
    <rc><c>C </c><c>   2</c></rc>
    <rc><c>C </c><c>   2</c></rc>
    <rc><c>C </c><c>   2</c></rc>
    <rc><c>C </c><c>   2</c></rc>
    <rc><c>O </c><c>   3</c></rc>
    <rc><c>O </c><c>   3</c></rc>
    <rc><c>O </c><c>   3</c></rc>
    <rc><c>O </c><c>   3</c></rc>
    <rc><c>O </c><c>   3</c></rc>
    <rc><c>O </c><c>   3</c></rc>
    <rc><c>N </c><c>   4</c></rc>
    <rc><c>N </c><c>   4</c></rc>
    <rc><c>N </c><c>   4</c></rc>
    <rc><c>N </c><c>   4</c></rc>
    <rc><c>N </c><c>   4</c></rc>
    <rc><c>N </c><c>   4</c></rc>
   </set>
  </array>
  <array name="atomtypes" >
   <dimension dim="1">type</dimension>
   <field type="int">atomspertype</field>
   <field type="string">element</field>
   <field>mass</field>
   <field>valence</field>
   <field type="string">pseudopotential</field>
   <set>
    <rc><c>  30</c><c>H </c><c>      1.00000000</c><c>      1.00000000</c><c>  PAW_PBE H 15Jun2001                   </c></rc>
    <rc><c>  39</c><c>C </c><c>     12.01100000</c><c>      4.00000000</c><c>  PAW_PBE C 08Apr2002                   </c></rc>
    <rc><c>   6</c><c>O </c><c>     16.00000000</c><c>      6.00000000</c><c>  PAW_PBE O 08Apr2002                   </c></rc>
    <rc><c>   6</c><c>N </c><c>     14.00100000</c><c>      5.00000000</c><c>  PAW_PBE N 08Apr2002                   </c></rc>
   </set>
  </array>
 </atominfo>
 <structure name="initialpos" >
  <crystal>
   <varray name="basis" >
    <v>      22.59570406      -0.00613524       0.00000000 </v>
    <v>     -11.30321079      19.59842641       0.00000000 </v>
    <v>       0.00000000       0.00000000      20.00000000 </v>
   </varray>
   <i name="volume">   8855.41790593 </i>
   <varray name="rec_basis" >
    <v>       0.04426313       0.02552835       0.00000000 </v>
    <v>       0.00001386       0.05103250       0.00000000 </v>
    <v>       0.00000000       0.00000000       0.05000000 </v>
   </varray>
  </crystal>
  <varray name="positions" >
   <v>       0.29241647       0.75244061       0.52068661 </v>
   <v>       0.45165451       0.70102341       0.51611612 </v>
   <v>       0.24099917       0.54201040       0.51838457 </v>
   <v>       0.69917134       0.24543721       0.50346787 </v>
   <v>       0.53770994       0.29372084       0.50097249 </v>
   <v>       0.74738901       0.45490928       0.50417596 </v>
   <v>       0.43696095       0.06531380       0.52628872 </v>
   <v>       0.33370113       0.96759680       0.55028544 </v>
   <v>       0.31835870       0.89384903       0.50550159 </v>
   <v>       0.33895584       0.90141664       0.59206667 </v>
   <v>       0.36961090       0.83800274       0.53499116 </v>
   <v>       0.61989997       0.55567377       0.52764326 </v>
   <v>       0.62546505       0.65887250       0.55157906 </v>
   <v>       0.56815640       0.67516645       0.50581066 </v>
   <v>       0.55324733       0.65346670       0.59203992 </v>
   <v>       0.46043487       0.62418497       0.53268918 </v>
   <v>       0.92782854       0.37336342       0.52865823 </v>
   <v>       0.02582272       0.36791146       0.55183941 </v>
   <v>       0.09928203       0.42626307       0.50655570 </v>
   <v>       0.09247282       0.43934265       0.59326700 </v>
   <v>       0.15544694       0.53309605       0.53514018 </v>
   <v>       0.55470939       0.93095217       0.49735285 </v>
   <v>       0.61958749       0.05677161       0.48463922 </v>
   <v>       0.62260660       0.15780501       0.48940741 </v>
   <v>       0.36851801       0.43986248       0.49270340 </v>
   <v>       0.42929715       0.37465701       0.48098321 </v>
   <v>       0.52682572       0.37065161       0.48862342 </v>
   <v>       0.06219830       0.62533321       0.50002161 </v>
   <v>       0.93618575       0.56433627       0.48773026 </v>
   <v>       0.83509625       0.46614375       0.49152131 </v>
   <v>       0.34662821       0.61416916       0.51967461 </v>
   <v>       0.27776989       0.59662616       0.52070099 </v>
   <v>       0.25909574       0.64694762       0.52198766 </v>
   <v>       0.31040208       0.71573138       0.52185418 </v>
   <v>       0.39701195       0.68312931       0.51941091 </v>
   <v>       0.36061789       0.55576879       0.51570602 </v>
   <v>       0.18655082       0.63302894       0.52021040 </v>
   <v>       0.64218583       0.38158965       0.50047818 </v>
   <v>       0.71132589       0.40015941       0.50149587 </v>
   <v>       0.73100566       0.35062336       0.50160436 </v>
   <v>       0.68048922       0.28153934       0.50104529 </v>
   <v>       0.59257704       0.31239871       0.49975946 </v>
   <v>       0.62738957       0.43946991       0.50354907 </v>
   <v>       0.80377846       0.36564668       0.50558303 </v>
   <v>       0.46232333       0.03558617       0.52012664 </v>
   <v>       0.42547529       0.96485316       0.52764002 </v>
   <v>       0.45925916       0.92692086       0.51883331 </v>
   <v>       0.35049840       0.93002703       0.54467347 </v>
   <v>       0.56496796       0.53071573       0.52016453 </v>
   <v>       0.53119124       0.56779440       0.52694783 </v>
   <v>       0.45966179       0.53452402       0.51669677 </v>
   <v>       0.57123952       0.64243665       0.54493832 </v>
   <v>       0.95755942       0.42840384       0.52247765 </v>
   <v>       0.02840956       0.46230556       0.52963842 </v>
   <v>       0.06631427       0.53398361       0.52099821 </v>
   <v>       0.06340889       0.42223723       0.54611000 </v>
   <v>       0.37945229       0.73436701       0.52061061 </v>
   <v>       0.43797632       0.80675567       0.51710869 </v>
   <v>       0.61120379       0.26189961       0.50000374 </v>
   <v>       0.55329305       0.18918663       0.50264980 </v>
   <v>       0.53224366       0.06933557       0.50449144 </v>
   <v>       0.52930516       0.96060358       0.50354906 </v>
   <v>       0.56510146       0.03106735       0.49647295 </v>
   <v>       0.52886785       0.46108431       0.50368274 </v>
   <v>       0.42341884       0.46485404       0.50022093 </v>
   <v>       0.45797886       0.42883838       0.49379343 </v>
   <v>       0.92369510       0.46450745       0.50721215 </v>
   <v>       0.03254014       0.57029450       0.50608301 </v>
   <v>       0.96196521       0.53559450       0.49925650 </v>
   <v>       0.49720014       0.81911370       0.50729388 </v>
   <v>       0.31370425       0.49652510       0.50647410 </v>
   <v>       0.17400502       0.68000746       0.51280294 </v>
   <v>       0.49347589       0.17613038       0.50969696 </v>
   <v>       0.67406212       0.49907222       0.51157375 </v>
   <v>       0.81693109       0.31911444       0.51355620 </v>
   <v>       0.41967476       0.85571819       0.52497216 </v>
   <v>       0.42806569       0.57417668       0.52272475 </v>
   <v>       0.13760465       0.56558657       0.52673841 </v>
   <v>       0.57223734       0.14046940       0.49757833 </v>
   <v>       0.55982316       0.42078740       0.49762567 </v>
   <v>       0.85245927       0.43328875       0.50039809 </v>
  </varray>
 </structure>
 <calculation>
  <scstep>
   <time name="dav">  244.33  246.91</time>
   <time name="total">  244.46  247.05</time>
   <energy>
    <i name="alphaZ">     32.50561609 </i>
    <i name="ewald">  27938.62345911 </i>
    <i name="hartreedc"> -36425.12089105 </i>
    <i name="XCdc">    912.29033187 </i>
    <i name="pawpsdc">  22980.08063053 </i>
    <i name="pawaedc"> -23028.21220326 </i>
    <i name="eentropy">     -0.00000000 </i>
    <i name="bandstr">  -3258.60056034 </i>
    <i name="atom">  10294.72904588 </i>
    <i name="e_fr_energy">   -553.70457118 </i>
    <i name="e_wo_entrp">   -553.70457118 </i>
    <i name="e_0_energy">   -553.70457118 </i>
   </energy>
  </scstep>
  <scstep>
   <time name="dav">  285.14  288.21</time>
   <time name="total">  285.14  288.21</time>
   <energy>
    <i name="e_fr_energy">   -554.31636497 </i>
    <i name="e_wo_entrp">   -554.31636497 </i>
    <i name="e_0_energy">   -554.31636497 </i>
   </energy>
  </scstep>
  <scstep>
   <time name="dav">  308.82  312.07</time>
   <time name="total">  308.83  312.07</time>
   <energy>
    <i name="e_fr_energy">   -554.32865701 </i>
    <i name="e_wo_entrp">   -554.32865701 </i>
    <i name="e_0_energy">   -554.32865701 </i>
   </energy>
  </scstep>
  <scstep>
   <time name="dav">  281.44  284.43</time>
   <time name="total">  281.44  284.43</time>
   <energy>
    <i name="e_fr_energy">   -554.32897103 </i>
    <i name="e_wo_entrp">   -554.32897103 </i>
    <i name="e_0_energy">   -554.32897103 </i>
   </energy>
  </scstep>
  <scstep>
   <time name="dav">  273.40  276.38</time>
   <time name="total">  273.41  276.38</time>
   <energy>
    <i name="e_fr_energy">   -554.32898555 </i>
    <i name="e_wo_entrp">   -554.32898555 </i>
    <i name="e_0_energy">   -554.32898555 </i>
   </energy>
  </scstep>
  <scstep>
   <time name="dav">  226.63  229.15</time>
   <time name="total">  226.63  229.16</time>
   <energy>
    <i name="alphaZ">     32.50561609 </i>
    <i name="ewald">  27938.62345911 </i>
    <i name="hartreedc"> -36425.12089105 </i>
    <i name="XCdc">    912.29033187 </i>
    <i name="pawpsdc">  22980.08063053 </i>
    <i name="pawaedc"> -23028.21220326 </i>
    <i name="eentropy">     -0.00000000 </i>
    <i name="bandstr">  -3259.22497545 </i>
    <i name="atom">  10294.72904588 </i>
    <i name="e_fr_energy">   -554.32898628 </i>
    <i name="e_wo_entrp">   -554.32898628 </i>
    <i name="e_0_energy">   -554.32898628 </i>
   </energy>
  </scstep>
  <structure>
   <crystal>
    <varray name="basis" >
     <v>      22.59570406      -0.00613524       0.00000000 </v>
     <v>     -11.30321079      19.59842641       0.00000000 </v>
     <v>       0.00000000       0.00000000      20.00000000 </v>
    </varray>
    <i name="volume">   8855.41790593 </i>
    <varray name="rec_basis" >
     <v>       0.04426313       0.02552835       0.00000000 </v>
     <v>       0.00001386       0.05103250       0.00000000 </v>
     <v>       0.00000000       0.00000000       0.05000000 </v>
    </varray>
   </crystal>
   <varray name="positions" >
    <v>       0.29241647       0.75244061       0.52068661 </v>
    <v>       0.45165451       0.70102341       0.51611612 </v>
    <v>       0.24099917       0.54201040       0.51838457 </v>
    <v>       0.69917134       0.24543721       0.50346787 </v>
    <v>       0.53770994       0.29372084       0.50097249 </v>
    <v>       0.74738901       0.45490928       0.50417596 </v>
    <v>       0.43696095       0.06531380       0.52628872 </v>
    <v>       0.33370113       0.96759680       0.55028544 </v>
    <v>       0.31835870       0.89384903       0.50550159 </v>
    <v>       0.33895584       0.90141664       0.59206667 </v>
    <v>       0.36961090       0.83800274       0.53499116 </v>
    <v>       0.61989997       0.55567377       0.52764326 </v>
    <v>       0.62546505       0.65887250       0.55157906 </v>
    <v>       0.56815640       0.67516645       0.50581066 </v>
    <v>       0.55324733       0.65346670       0.59203992 </v>
    <v>       0.46043487       0.62418497       0.53268918 </v>
    <v>       0.92782854       0.37336342       0.52865823 </v>
    <v>       0.02582272       0.36791146       0.55183941 </v>
    <v>       0.09928203       0.42626307       0.50655570 </v>
    <v>       0.09247282       0.43934265       0.59326700 </v>
    <v>       0.15544694       0.53309605       0.53514018 </v>
    <v>       0.55470939       0.93095217       0.49735285 </v>
    <v>       0.61958749       0.05677161       0.48463922 </v>
    <v>       0.62260660       0.15780501       0.48940741 </v>
    <v>       0.36851801       0.43986248       0.49270340 </v>
    <v>       0.42929715       0.37465701       0.48098321 </v>
    <v>       0.52682572       0.37065161       0.48862342 </v>
    <v>       0.06219830       0.62533321       0.50002161 </v>
    <v>       0.93618575       0.56433627       0.48773026 </v>
    <v>       0.83509625       0.46614375       0.49152131 </v>
    <v>       0.34662821       0.61416916       0.51967461 </v>
    <v>       0.27776989       0.59662616       0.52070099 </v>
    <v>       0.25909574       0.64694762       0.52198766 </v>
    <v>       0.31040208       0.71573138       0.52185418 </v>
    <v>       0.39701195       0.68312931       0.51941091 </v>
    <v>       0.36061789       0.55576879       0.51570602 </v>
    <v>       0.18655082       0.63302894       0.52021040 </v>
    <v>       0.64218583       0.38158965       0.50047818 </v>
    <v>       0.71132589       0.40015941       0.50149587 </v>
    <v>       0.73100566       0.35062336       0.50160436 </v>
    <v>       0.68048922       0.28153934       0.50104529 </v>
    <v>       0.59257704       0.31239871       0.49975946 </v>
    <v>       0.62738957       0.43946991       0.50354907 </v>
    <v>       0.80377846       0.36564668       0.50558303 </v>
    <v>       0.46232333       0.03558617       0.52012664 </v>
    <v>       0.42547529       0.96485316       0.52764002 </v>
    <v>       0.45925916       0.92692086       0.51883331 </v>
    <v>       0.35049840       0.93002703       0.54467347 </v>
    <v>       0.56496796       0.53071573       0.52016453 </v>
    <v>       0.53119124       0.56779440       0.52694783 </v>
    <v>       0.45966179       0.53452402       0.51669677 </v>
    <v>       0.57123952       0.64243665       0.54493832 </v>
    <v>       0.95755942       0.42840384       0.52247765 </v>
    <v>       0.02840956       0.46230556       0.52963842 </v>
    <v>       0.06631427       0.53398361       0.52099821 </v>
    <v>       0.06340889       0.42223723       0.54611000 </v>
    <v>       0.37945229       0.73436701       0.52061061 </v>
    <v>       0.43797632       0.80675567       0.51710869 </v>
    <v>       0.61120379       0.26189961       0.50000374 </v>
    <v>       0.55329305       0.18918663       0.50264980 </v>
    <v>       0.53224366       0.06933557       0.50449144 </v>
    <v>       0.52930516       0.96060358       0.50354906 </v>
    <v>       0.56510146       0.03106735       0.49647295 </v>
    <v>       0.52886785       0.46108431       0.50368274 </v>
    <v>       0.42341884       0.46485404       0.50022093 </v>
    <v>       0.45797886       0.42883838       0.49379343 </v>
    <v>       0.92369510       0.46450745       0.50721215 </v>
    <v>       0.03254014       0.57029450       0.50608301 </v>
    <v>       0.96196521       0.53559450       0.49925650 </v>
    <v>       0.49720014       0.81911370       0.50729388 </v>
    <v>       0.31370425       0.49652510       0.50647410 </v>
    <v>       0.17400502       0.68000746       0.51280294 </v>
    <v>       0.49347589       0.17613038       0.50969696 </v>
    <v>       0.67406212       0.49907222       0.51157375 </v>
    <v>       0.81693109       0.31911444       0.51355620 </v>
    <v>       0.41967476       0.85571819       0.52497216 </v>
    <v>       0.42806569       0.57417668       0.52272475 </v>
    <v>       0.13760465       0.56558657       0.52673841 </v>
    <v>       0.57223734       0.14046940       0.49757833 </v>
    <v>       0.55982316       0.42078740       0.49762567 </v>
    <v>       0.85245927       0.43328875       0.50039809 </v>
   </varray>
  </structure>
  <varray name="forces" >
   <v>       0.00052628       0.00062496      -0.00225802 </v>
   <v>       0.00009330      -0.00021835      -0.00045121 </v>
   <v>       0.00025913       0.00017720       0.00172309 </v>
   <v>       0.00172455       0.00028277      -0.00153320 </v>
   <v>       0.00238974      -0.00093789       0.00457936 </v>
   <v>       0.00065824       0.00137016      -0.00087223 </v>
   <v>      -0.00025503       0.00107295      -0.00057838 </v>
   <v>       0.00092454      -0.00039931      -0.00204768 </v>
   <v>       0.00154395      -0.00087878      -0.00359060 </v>
   <v>       0.00095211       0.00118741      -0.00436823 </v>
   <v>      -0.00361032       0.00079609      -0.00211370 </v>
   <v>       0.00095370       0.00023553      -0.00079908 </v>
   <v>       0.00015463       0.00098585      -0.00216768 </v>
   <v>       0.00044526      -0.00059692      -0.00340194 </v>
   <v>       0.00218252       0.00165564      -0.00416238 </v>
   <v>       0.00083052      -0.00068282       0.00037787 </v>
   <v>       0.00076491      -0.00290611      -0.00065210 </v>
   <v>       0.00234910      -0.00075928      -0.00163212 </v>
   <v>       0.00174785      -0.00110701      -0.00236054 </v>
   <v>      -0.00118842      -0.00075597      -0.00483612 </v>
   <v>       0.00286252      -0.00033042      -0.00170537 </v>
   <v>       0.00229217      -0.00107527      -0.00061130 </v>
   <v>       0.00021242      -0.00144046       0.00117417 </v>
   <v>      -0.00557954      -0.00145256       0.00095400 </v>
   <v>       0.00025107       0.00042473       0.00230848 </v>
   <v>      -0.00030271      -0.00010716       0.00708932 </v>
   <v>       0.00007416       0.00313747       0.00316204 </v>
   <v>      -0.00003619      -0.00110746       0.00184190 </v>
   <v>      -0.00036682      -0.00109582      -0.00028135 </v>
   <v>       0.00217911      -0.00282685       0.00252520 </v>
   <v>      -0.00567360       0.00542775      -0.00206102 </v>
   <v>       0.00116457      -0.00256075      -0.00003779 </v>
   <v>       0.00463336       0.00313532       0.00177885 </v>
   <v>      -0.00053445      -0.00454105      -0.00063160 </v>
   <v>      -0.00278867       0.00316678      -0.00130493 </v>
   <v>      -0.00135611      -0.00702928      -0.00095744 </v>
   <v>       0.00228528      -0.00287179       0.00105817 </v>
   <v>      -0.00337982       0.00408863      -0.00193314 </v>
   <v>       0.00140289       0.00052361       0.00083161 </v>
   <v>       0.00845004       0.00325827       0.00166056 </v>
   <v>      -0.00111329       0.00147879       0.00116170 </v>
   <v>      -0.00089250      -0.00111218       0.00060055 </v>
   <v>      -0.00227567      -0.00323522       0.00038436 </v>
   <v>       0.00390362      -0.00306146       0.00211015 </v>
   <v>       0.00305841      -0.00252358      -0.00108456 </v>
   <v>      -0.00036279      -0.00002798      -0.00247953 </v>
   <v>       0.00059316       0.00043225      -0.00297375 </v>
   <v>      -0.00007119       0.00036807       0.00138669 </v>
   <v>      -0.00199689      -0.00118706      -0.00071944 </v>
   <v>      -0.00120009       0.00462209       0.00159847 </v>
   <v>       0.00158518      -0.00441148       0.00032299 </v>
   <v>       0.00028320       0.00042511       0.00249196 </v>
   <v>       0.00127166       0.00263341       0.00047713 </v>
   <v>       0.00322763       0.00242066      -0.00027813 </v>
   <v>      -0.00261319      -0.00353306      -0.00070608 </v>
   <v>       0.00111820      -0.00055992       0.00332669 </v>
   <v>       0.00258819      -0.00813888      -0.00103687 </v>
   <v>      -0.00490982      -0.00340870       0.00022287 </v>
   <v>      -0.00156705      -0.00580482       0.00122825 </v>
   <v>      -0.00672511       0.00028852       0.00283629 </v>
   <v>      -0.00180079       0.00294536      -0.00069758 </v>
   <v>      -0.00312985      -0.00235541      -0.00176583 </v>
   <v>       0.00026879      -0.00074207      -0.00154369 </v>
   <v>       0.00627993      -0.00515898      -0.00145259 </v>
   <v>      -0.00167952      -0.00015868      -0.00021604 </v>
   <v>      -0.00121765       0.00005321      -0.00118181 </v>
   <v>      -0.00365818       0.00045248       0.00063357 </v>
   <v>       0.00078383       0.00310709       0.00153710 </v>
   <v>       0.00032622       0.00039369       0.00131935 </v>
   <v>      -0.00004729       0.00403331       0.00266977 </v>
   <v>       0.00163072       0.00554014      -0.00238845 </v>
   <v>      -0.00327382       0.00583233       0.00093587 </v>
   <v>       0.00574658       0.00451992      -0.00053724 </v>
   <v>       0.00295161       0.00125618       0.00195657 </v>
   <v>      -0.00609135       0.00553068      -0.00087863 </v>
   <v>      -0.00346083       0.00255747      -0.00237717 </v>
   <v>       0.00184999       0.00185746       0.00213167 </v>
   <v>      -0.00381124       0.00187929      -0.00205735 </v>
   <v>       0.00119242      -0.00060575       0.00745469 </v>
   <v>      -0.00039519      -0.00174317       0.00341202 </v>
   <v>      -0.00560230      -0.00072893       0.00046062 </v>
  </varray>
  <varray name="stress" >
   <v>       0.22248763      -0.00607306      -0.00100284 </v>
   <v>      -0.00607306       0.18635767      -0.00141175 </v>
   <v>      -0.00100283      -0.00141175      -0.22553666 </v>
  </varray>
  <energy>
   <i name="e_fr_energy">   -555.92834549 </i>
   <i name="e_wo_entrp">   -555.92834549 </i>
   <i name="e_0_energy">     -0.00000000 </i>
  </energy>
  <time name="totalsc"> 1908.54 1929.84</time>
  <eigenvalues>
   <array>
    <dimension dim="1">band</dimension>
    <dimension dim="2">kpoint</dimension>
    <dimension dim="3">spin</dimension>
    <field>eigene</field>
    <field>occ</field>
    <set>
     <set comment="spin 1">
      <set comment="kpoint 1">
       <r>  -25.9071    1.0000 </r>
       <r>  -25.8950    1.0000 </r>
       <r>  -25.8909    1.0000 </r>
       <r>  -25.8879    1.0000 </r>
       <r>  -25.8786    1.0000 </r>
       <r>  -25.8752    1.0000 </r>
       <r>  -23.6003    1.0000 </r>
       <r>  -23.5997    1.0000 </r>
       <r>  -23.5947    1.0000 </r>
       <r>  -23.4936    1.0000 </r>
       <r>  -23.4933    1.0000 </r>
       <r>  -23.4887    1.0000 </r>
       <r>  -21.8289    1.0000 </r>
       <r>  -21.7847    1.0000 </r>
       <r>  -20.9967    1.0000 </r>
       <r>  -20.9956    1.0000 </r>
       <r>  -20.8738    1.0000 </r>
       <r>  -19.5687    1.0000 </r>
       <r>  -19.5681    1.0000 </r>
       <r>  -19.2371    1.0000 </r>
       <r>  -19.2362    1.0000 </r>
       <r>  -19.1388    1.0000 </r>
       <r>  -19.0281    1.0000 </r>
       <r>  -19.0273    1.0000 </r>
       <r>  -18.4375    1.0000 </r>
       <r>  -18.1584    1.0000 </r>
       <r>  -18.1573    1.0000 </r>
       <r>  -17.0690    1.0000 </r>
       <r>  -17.0625    1.0000 </r>
       <r>  -17.0623    1.0000 </r>
       <r>  -16.7155    1.0000 </r>
       <r>  -16.7147    1.0000 </r>
       <r>  -16.6840    1.0000 </r>
       <r>  -15.8557    1.0000 </r>
       <r>  -15.8543    1.0000 </r>
       <r>  -15.3400    1.0000 </r>
       <r>  -15.3397    1.0000 </r>
       <r>  -15.2604    1.0000 </r>
       <r>  -15.0318    1.0000 </r>
       <r>  -14.7050    1.0000 </r>
       <r>  -14.7036    1.0000 </r>
       <r>  -14.5645    1.0000 </r>
       <r>  -14.5631    1.0000 </r>
       <r>  -14.3160    1.0000 </r>
       <r>  -13.9886    1.0000 </r>
       <r>  -13.5350    1.0000 </r>
       <r>  -13.5328    1.0000 </r>
       <r>  -13.4828    1.0000 </r>
       <r>  -13.1639    1.0000 </r>
       <r>  -13.1625    1.0000 </r>
       <r>  -12.8740    1.0000 </r>
       <r>  -12.7721    1.0000 </r>
       <r>  -12.7705    1.0000 </r>
       <r>  -12.6390    1.0000 </r>
       <r>  -12.1923    1.0000 </r>
       <r>  -11.9099    1.0000 </r>
       <r>  -11.4573    1.0000 </r>
       <r>  -11.4571    1.0000 </r>
       <r>  -11.3973    1.0000 </r>
       <r>  -11.3492    1.0000 </r>
       <r>  -11.3479    1.0000 </r>
       <r>  -11.1882    1.0000 </r>
       <r>  -10.9543    1.0000 </r>
       <r>  -10.9502    1.0000 </r>
       <r>  -10.8955    1.0000 </r>
       <r>  -10.8520    1.0000 </r>
       <r>  -10.8022    1.0000 </r>
       <r>  -10.7849    1.0000 </r>
       <r>  -10.7807    1.0000 </r>
       <r>  -10.5167    1.0000 </r>
       <r>  -10.5151    1.0000 </r>
       <r>  -10.3031    1.0000 </r>
       <r>  -10.2378    1.0000 </r>
       <r>  -10.2325    1.0000 </r>
       <r>  -10.2314    1.0000 </r>
       <r>  -10.1801    1.0000 </r>
       <r>  -10.1776    1.0000 </r>
       <r>  -10.0782    1.0000 </r>
       <r>  -10.0765    1.0000 </r>
       <r>  -10.0566    1.0000 </r>
       <r>  -10.0413    1.0000 </r>
       <r>  -10.0407    1.0000 </r>
       <r>   -9.9251    1.0000 </r>
       <r>   -9.7313    1.0000 </r>
       <r>   -9.7313    1.0000 </r>
       <r>   -9.6464    1.0000 </r>
       <r>   -9.5878    1.0000 </r>
       <r>   -9.5864    1.0000 </r>
       <r>   -9.5550    1.0000 </r>
       <r>   -9.4188    1.0000 </r>
       <r>   -9.1411    1.0000 </r>
       <r>   -8.9875    1.0000 </r>
       <r>   -8.9867    1.0000 </r>
       <r>   -8.9157    1.0000 </r>
       <r>   -8.9146    1.0000 </r>
       <r>   -8.8225    1.0000 </r>
       <r>   -8.7983    1.0000 </r>
       <r>   -8.7974    1.0000 </r>
       <r>   -8.6926    1.0000 </r>
       <r>   -8.6922    1.0000 </r>
       <r>   -8.4320    1.0000 </r>
       <r>   -8.1787    1.0000 </r>
       <r>   -8.1755    1.0000 </r>
       <r>   -8.1728    1.0000 </r>
       <r>   -8.0132    1.0000 </r>
       <r>   -8.0100    1.0000 </r>
       <r>   -7.7443    1.0000 </r>
       <r>   -6.7995    1.0000 </r>
       <r>   -6.7990    1.0000 </r>
       <r>   -6.6787    1.0000 </r>
       <r>   -6.6638    1.0000 </r>
       <r>   -6.6632    1.0000 </r>
       <r>   -6.5541    1.0000 </r>
       <r>   -6.5537    1.0000 </r>
       <r>   -6.0419    1.0000 </r>
       <r>   -6.0369    1.0000 </r>
       <r>   -6.0319    1.0000 </r>
       <r>   -6.0302    1.0000 </r>
       <r>   -5.9141    1.0000 </r>
       <r>   -5.8357    1.0000 </r>
       <r>   -5.8351    1.0000 </r>
       <r>   -5.6942    1.0000 </r>
       <r>   -5.6924    1.0000 </r>
       <r>   -4.9255    1.0000 </r>
       <r>   -4.8976    1.0000 </r>
       <r>   -4.8956    1.0000 </r>
       <r>   -2.6004    0.0000 </r>
       <r>   -2.5995    0.0000 </r>
       <r>   -2.3133    0.0000 </r>
       <r>   -2.3130    0.0000 </r>
       <r>   -1.7901    0.0000 </r>
       <r>   -1.0716    0.0000 </r>
       <r>   -1.0191    0.0000 </r>
       <r>   -1.0179    0.0000 </r>
       <r>   -1.0000    0.0000 </r>
       <r>   -0.6408    0.0000 </r>
       <r>   -0.6383    0.0000 </r>
       <r>   -0.4741    0.0000 </r>
       <r>   -0.3303    0.0000 </r>
       <r>   -0.1269    0.0000 </r>
       <r>   -0.1253    0.0000 </r>
       <r>   -0.0611    0.0000 </r>
       <r>   -0.0590    0.0000 </r>
       <r>    0.0279    0.0000 </r>
       <r>    0.4295    0.0000 </r>
       <r>    0.4597    0.0000 </r>
       <r>    0.5235    0.0000 </r>
       <r>    0.5962    0.0000 </r>
       <r>    0.6089    0.0000 </r>
       <r>    0.6109    0.0000 </r>
       <r>    0.6316    0.0000 </r>
       <r>    0.6827    0.0000 </r>
       <r>    0.6833    0.0000 </r>
       <r>    0.7724    0.0000 </r>
       <r>    0.7745    0.0000 </r>
       <r>    0.8506    0.0000 </r>
       <r>    0.8533    0.0000 </r>
       <r>    0.8957    0.0000 </r>
       <r>    0.9003    0.0000 </r>
       <r>    0.9172    0.0000 </r>
       <r>    0.9542    0.0000 </r>
       <r>    0.9893    0.0000 </r>
       <r>    1.0200    0.0000 </r>
       <r>    1.0229    0.0000 </r>
       <r>    1.0377    0.0000 </r>
       <r>    1.0396    0.0000 </r>
       <r>    1.0587    0.0000 </r>
       <r>    1.1081    0.0000 </r>
       <r>    1.1256    0.0000 </r>
       <r>    1.1387    0.0000 </r>
       <r>    1.1411    0.0000 </r>
       <r>    1.2162    0.0000 </r>
       <r>    1.2190    0.0000 </r>
       <r>    1.3498    0.0000 </r>
       <r>    1.4059    0.0000 </r>
       <r>    1.4105    0.0000 </r>
      </set>
      <set comment="kpoint 2">
       <r>  -25.9071    1.0000 </r>
       <r>  -25.8950    1.0000 </r>
       <r>  -25.8909    1.0000 </r>
       <r>  -25.8879    1.0000 </r>
       <r>  -25.8786    1.0000 </r>
       <r>  -25.8752    1.0000 </r>
       <r>  -23.6003    1.0000 </r>
       <r>  -23.5997    1.0000 </r>
       <r>  -23.5947    1.0000 </r>
       <r>  -23.4936    1.0000 </r>
       <r>  -23.4932    1.0000 </r>
       <r>  -23.4887    1.0000 </r>
       <r>  -21.8288    1.0000 </r>
       <r>  -21.7847    1.0000 </r>
       <r>  -20.9967    1.0000 </r>
       <r>  -20.9954    1.0000 </r>
       <r>  -20.8740    1.0000 </r>
       <r>  -19.5687    1.0000 </r>
       <r>  -19.5678    1.0000 </r>
       <r>  -19.2373    1.0000 </r>
       <r>  -19.2370    1.0000 </r>
       <r>  -19.1382    1.0000 </r>
       <r>  -19.0281    1.0000 </r>
       <r>  -19.0273    1.0000 </r>
       <r>  -18.4370    1.0000 </r>
       <r>  -18.1584    1.0000 </r>
       <r>  -18.1577    1.0000 </r>
       <r>  -17.0690    1.0000 </r>
       <r>  -17.0625    1.0000 </r>
       <r>  -17.0623    1.0000 </r>
       <r>  -16.7155    1.0000 </r>
       <r>  -16.7147    1.0000 </r>
       <r>  -16.6840    1.0000 </r>
       <r>  -15.8552    1.0000 </r>
       <r>  -15.8542    1.0000 </r>
       <r>  -15.3426    1.0000 </r>
       <r>  -15.3397    1.0000 </r>
       <r>  -15.2585    1.0000 </r>
       <r>  -15.0317    1.0000 </r>
       <r>  -14.7050    1.0000 </r>
       <r>  -14.7039    1.0000 </r>
       <r>  -14.5644    1.0000 </r>
       <r>  -14.5633    1.0000 </r>
       <r>  -14.3153    1.0000 </r>
       <r>  -13.9887    1.0000 </r>
       <r>  -13.5351    1.0000 </r>
       <r>  -13.5331    1.0000 </r>
       <r>  -13.4834    1.0000 </r>
       <r>  -13.1637    1.0000 </r>
       <r>  -13.1619    1.0000 </r>
       <r>  -12.8740    1.0000 </r>
       <r>  -12.7721    1.0000 </r>
       <r>  -12.7706    1.0000 </r>
       <r>  -12.6390    1.0000 </r>
       <r>  -12.1918    1.0000 </r>
       <r>  -11.9104    1.0000 </r>
       <r>  -11.4576    1.0000 </r>
       <r>  -11.4571    1.0000 </r>
       <r>  -11.3968    1.0000 </r>
       <r>  -11.3491    1.0000 </r>
       <r>  -11.3479    1.0000 </r>
       <r>  -11.1884    1.0000 </r>
       <r>  -10.9542    1.0000 </r>
       <r>  -10.9502    1.0000 </r>
       <r>  -10.8956    1.0000 </r>
       <r>  -10.8521    1.0000 </r>
       <r>  -10.8036    1.0000 </r>
       <r>  -10.7843    1.0000 </r>
       <r>  -10.7798    1.0000 </r>
       <r>  -10.5167    1.0000 </r>
       <r>  -10.5153    1.0000 </r>
       <r>  -10.3030    1.0000 </r>
       <r>  -10.2380    1.0000 </r>
       <r>  -10.2325    1.0000 </r>
       <r>  -10.2312    1.0000 </r>
       <r>  -10.1801    1.0000 </r>
       <r>  -10.1776    1.0000 </r>
       <r>  -10.0782    1.0000 </r>
       <r>  -10.0765    1.0000 </r>
       <r>  -10.0565    1.0000 </r>
       <r>  -10.0413    1.0000 </r>
       <r>  -10.0407    1.0000 </r>
       <r>   -9.9253    1.0000 </r>
       <r>   -9.7314    1.0000 </r>
       <r>   -9.7311    1.0000 </r>
       <r>   -9.6465    1.0000 </r>
       <r>   -9.5878    1.0000 </r>
       <r>   -9.5864    1.0000 </r>
       <r>   -9.5550    1.0000 </r>
       <r>   -9.4187    1.0000 </r>
       <r>   -9.1419    1.0000 </r>
       <r>   -8.9874    1.0000 </r>
       <r>   -8.9865    1.0000 </r>
       <r>   -8.9154    1.0000 </r>
       <r>   -8.9139    1.0000 </r>
       <r>   -8.8234    1.0000 </r>
       <r>   -8.7981    1.0000 </r>
       <r>   -8.7969    1.0000 </r>
       <r>   -8.6925    1.0000 </r>
       <r>   -8.6922    1.0000 </r>
       <r>   -8.4328    1.0000 </r>
       <r>   -8.1787    1.0000 </r>
       <r>   -8.1755    1.0000 </r>
       <r>   -8.1728    1.0000 </r>
       <r>   -8.0129    1.0000 </r>
       <r>   -8.0097    1.0000 </r>
       <r>   -7.7446    1.0000 </r>
       <r>   -6.7994    1.0000 </r>
       <r>   -6.7990    1.0000 </r>
       <r>   -6.6800    1.0000 </r>
       <r>   -6.6632    1.0000 </r>
       <r>   -6.6625    1.0000 </r>
       <r>   -6.5542    1.0000 </r>
       <r>   -6.5537    1.0000 </r>
       <r>   -6.0418    1.0000 </r>
       <r>   -6.0368    1.0000 </r>
       <r>   -6.0319    1.0000 </r>
       <r>   -6.0302    1.0000 </r>
       <r>   -5.9146    1.0000 </r>
       <r>   -5.8357    1.0000 </r>
       <r>   -5.8346    1.0000 </r>
       <r>   -5.6942    1.0000 </r>
       <r>   -5.6925    1.0000 </r>
       <r>   -4.9255    1.0000 </r>
       <r>   -4.8976    1.0000 </r>
       <r>   -4.8956    1.0000 </r>
       <r>   -2.6001    0.0000 </r>
       <r>   -2.5995    0.0000 </r>
       <r>   -2.3141    0.0000 </r>
       <r>   -2.3130    0.0000 </r>
       <r>   -1.7889    0.0000 </r>
       <r>   -1.0731    0.0000 </r>
       <r>   -1.0191    0.0000 </r>
       <r>   -1.0179    0.0000 </r>
       <r>   -1.0007    0.0000 </r>
       <r>   -0.6407    0.0000 </r>
       <r>   -0.6363    0.0000 </r>
       <r>   -0.4740    0.0000 </r>
       <r>   -0.3306    0.0000 </r>
       <r>   -0.1271    0.0000 </r>
       <r>   -0.1253    0.0000 </r>
       <r>   -0.0608    0.0000 </r>
       <r>   -0.0585    0.0000 </r>
       <r>    0.0273    0.0000 </r>
       <r>    0.4294    0.0000 </r>
       <r>    0.4599    0.0000 </r>
       <r>    0.5234    0.0000 </r>
       <r>    0.5955    0.0000 </r>
       <r>    0.6069    0.0000 </r>
       <r>    0.6103    0.0000 </r>
       <r>    0.6331    0.0000 </r>
       <r>    0.6827    0.0000 </r>
       <r>    0.6846    0.0000 </r>
       <r>    0.7715    0.0000 </r>
       <r>    0.7745    0.0000 </r>
       <r>    0.8508    0.0000 </r>
       <r>    0.8532    0.0000 </r>
       <r>    0.8955    0.0000 </r>
       <r>    0.9004    0.0000 </r>
       <r>    0.9186    0.0000 </r>
       <r>    0.9548    0.0000 </r>
       <r>    0.9886    0.0000 </r>
       <r>    1.0182    0.0000 </r>
       <r>    1.0211    0.0000 </r>
       <r>    1.0391    0.0000 </r>
       <r>    1.0412    0.0000 </r>
       <r>    1.0602    0.0000 </r>
       <r>    1.1100    0.0000 </r>
       <r>    1.1186    0.0000 </r>
       <r>    1.1409    0.0000 </r>
       <r>    1.1470    0.0000 </r>
       <r>    1.2164    0.0000 </r>
       <r>    1.2189    0.0000 </r>
       <r>    1.3493    0.0000 </r>
       <r>    1.4056    0.0000 </r>
       <r>    1.4096    0.0000 </r>
      </set>
      <set comment="kpoint 3">
       <r>  -25.9071    1.0000 </r>
       <r>  -25.8951    1.0000 </r>
       <r>  -25.8908    1.0000 </r>
       <r>  -25.8879    1.0000 </r>
       <r>  -25.8786    1.0000 </r>
       <r>  -25.8752    1.0000 </r>
       <r>  -23.6003    1.0000 </r>
       <r>  -23.5997    1.0000 </r>
       <r>  -23.5947    1.0000 </r>
       <r>  -23.4936    1.0000 </r>
       <r>  -23.4932    1.0000 </r>
       <r>  -23.4887    1.0000 </r>
       <r>  -21.8287    1.0000 </r>
       <r>  -21.7849    1.0000 </r>
       <r>  -20.9967    1.0000 </r>
       <r>  -20.9949    1.0000 </r>
       <r>  -20.8746    1.0000 </r>
       <r>  -19.5687    1.0000 </r>
       <r>  -19.5667    1.0000 </r>
       <r>  -19.2402    1.0000 </r>
       <r>  -19.2371    1.0000 </r>
       <r>  -19.1366    1.0000 </r>
       <r>  -19.0281    1.0000 </r>
       <r>  -19.0273    1.0000 </r>
       <r>  -18.4355    1.0000 </r>
       <r>  -18.1588    1.0000 </r>
       <r>  -18.1584    1.0000 </r>
       <r>  -17.0690    1.0000 </r>
       <r>  -17.0625    1.0000 </r>
       <r>  -17.0623    1.0000 </r>
       <r>  -16.7154    1.0000 </r>
       <r>  -16.7147    1.0000 </r>
       <r>  -16.6842    1.0000 </r>
       <r>  -15.8545    1.0000 </r>
       <r>  -15.8532    1.0000 </r>
       <r>  -15.3498    1.0000 </r>
       <r>  -15.3397    1.0000 </r>
       <r>  -15.2534    1.0000 </r>
       <r>  -15.0314    1.0000 </r>
       <r>  -14.7050    1.0000 </r>
       <r>  -14.7045    1.0000 </r>
       <r>  -14.5642    1.0000 </r>
       <r>  -14.5634    1.0000 </r>
       <r>  -14.3133    1.0000 </r>
       <r>  -13.9888    1.0000 </r>
       <r>  -13.5353    1.0000 </r>
       <r>  -13.5339    1.0000 </r>
       <r>  -13.4853    1.0000 </r>
       <r>  -13.1634    1.0000 </r>
       <r>  -13.1603    1.0000 </r>
       <r>  -12.8740    1.0000 </r>
       <r>  -12.7721    1.0000 </r>
       <r>  -12.7710    1.0000 </r>
       <r>  -12.6389    1.0000 </r>
       <r>  -12.1906    1.0000 </r>
       <r>  -11.9119    1.0000 </r>
       <r>  -11.4585    1.0000 </r>
       <r>  -11.4569    1.0000 </r>
       <r>  -11.3953    1.0000 </r>
       <r>  -11.3488    1.0000 </r>
       <r>  -11.3479    1.0000 </r>
       <r>  -11.1888    1.0000 </r>
       <r>  -10.9540    1.0000 </r>
       <r>  -10.9500    1.0000 </r>
       <r>  -10.8958    1.0000 </r>
       <r>  -10.8524    1.0000 </r>
       <r>  -10.8070    1.0000 </r>
       <r>  -10.7836    1.0000 </r>
       <r>  -10.7766    1.0000 </r>
       <r>  -10.5172    1.0000 </r>
       <r>  -10.5158    1.0000 </r>
       <r>  -10.3026    1.0000 </r>
       <r>  -10.2384    1.0000 </r>
       <r>  -10.2324    1.0000 </r>
       <r>  -10.2304    1.0000 </r>
       <r>  -10.1799    1.0000 </r>
       <r>  -10.1777    1.0000 </r>
       <r>  -10.0783    1.0000 </r>
       <r>  -10.0765    1.0000 </r>
       <r>  -10.0562    1.0000 </r>
       <r>  -10.0411    1.0000 </r>
       <r>  -10.0407    1.0000 </r>
       <r>   -9.9258    1.0000 </r>
       <r>   -9.7317    1.0000 </r>
       <r>   -9.7308    1.0000 </r>
       <r>   -9.6469    1.0000 </r>
       <r>   -9.5877    1.0000 </r>
       <r>   -9.5863    1.0000 </r>
       <r>   -9.5550    1.0000 </r>
       <r>   -9.4183    1.0000 </r>
       <r>   -9.1442    1.0000 </r>
       <r>   -8.9871    1.0000 </r>
       <r>   -8.9860    1.0000 </r>
       <r>   -8.9152    1.0000 </r>
       <r>   -8.9110    1.0000 </r>
       <r>   -8.8257    1.0000 </r>
       <r>   -8.7983    1.0000 </r>
       <r>   -8.7951    1.0000 </r>
       <r>   -8.6925    1.0000 </r>
       <r>   -8.6921    1.0000 </r>
       <r>   -8.4352    1.0000 </r>
       <r>   -8.1787    1.0000 </r>
       <r>   -8.1755    1.0000 </r>
       <r>   -8.1728    1.0000 </r>
       <r>   -8.0123    1.0000 </r>
       <r>   -8.0084    1.0000 </r>
       <r>   -7.7454    1.0000 </r>
       <r>   -6.7994    1.0000 </r>
       <r>   -6.7987    1.0000 </r>
       <r>   -6.6830    1.0000 </r>
       <r>   -6.6632    1.0000 </r>
       <r>   -6.6596    1.0000 </r>
       <r>   -6.5544    1.0000 </r>
       <r>   -6.5538    1.0000 </r>
       <r>   -6.0417    1.0000 </r>
       <r>   -6.0368    1.0000 </r>
       <r>   -6.0320    1.0000 </r>
       <r>   -6.0301    1.0000 </r>
       <r>   -5.9161    1.0000 </r>
       <r>   -5.8357    1.0000 </r>
       <r>   -5.8330    1.0000 </r>
       <r>   -5.6943    1.0000 </r>
       <r>   -5.6928    1.0000 </r>
       <r>   -4.9253    1.0000 </r>
       <r>   -4.8976    1.0000 </r>
       <r>   -4.8957    1.0000 </r>
       <r>   -2.5996    0.0000 </r>
       <r>   -2.5992    0.0000 </r>
       <r>   -2.3165    0.0000 </r>
       <r>   -2.3130    0.0000 </r>
       <r>   -1.7854    0.0000 </r>
       <r>   -1.0775    0.0000 </r>
       <r>   -1.0191    0.0000 </r>
       <r>   -1.0180    0.0000 </r>
       <r>   -1.0025    0.0000 </r>
       <r>   -0.6407    0.0000 </r>
       <r>   -0.6301    0.0000 </r>
       <r>   -0.4734    0.0000 </r>
       <r>   -0.3318    0.0000 </r>
       <r>   -0.1280    0.0000 </r>
       <r>   -0.1252    0.0000 </r>
       <r>   -0.0600    0.0000 </r>
       <r>   -0.0572    0.0000 </r>
       <r>    0.0253    0.0000 </r>
       <r>    0.4291    0.0000 </r>
       <r>    0.4602    0.0000 </r>
       <r>    0.5229    0.0000 </r>
       <r>    0.5937    0.0000 </r>
       <r>    0.5997    0.0000 </r>
       <r>    0.6114    0.0000 </r>
       <r>    0.6353    0.0000 </r>
       <r>    0.6827    0.0000 </r>
       <r>    0.6886    0.0000 </r>
       <r>    0.7685    0.0000 </r>
       <r>    0.7745    0.0000 </r>
       <r>    0.8513    0.0000 </r>
       <r>    0.8529    0.0000 </r>
       <r>    0.8950    0.0000 </r>
       <r>    0.9007    0.0000 </r>
       <r>    0.9220    0.0000 </r>
       <r>    0.9565    0.0000 </r>
       <r>    0.9865    0.0000 </r>
       <r>    1.0134    0.0000 </r>
       <r>    1.0178    0.0000 </r>
       <r>    1.0405    0.0000 </r>
       <r>    1.0466    0.0000 </r>
       <r>    1.0642    0.0000 </r>
       <r>    1.1077    0.0000 </r>
       <r>    1.1161    0.0000 </r>
       <r>    1.1426    0.0000 </r>
       <r>    1.1589    0.0000 </r>
       <r>    1.2170    0.0000 </r>
       <r>    1.2187    0.0000 </r>
       <r>    1.3479    0.0000 </r>
       <r>    1.4038    0.0000 </r>
       <r>    1.4074    0.0000 </r>
      </set>
      <set comment="kpoint 4">
       <r>  -25.9071    1.0000 </r>
       <r>  -25.8951    1.0000 </r>
       <r>  -25.8908    1.0000 </r>
       <r>  -25.8879    1.0000 </r>
       <r>  -25.8786    1.0000 </r>
       <r>  -25.8752    1.0000 </r>
       <r>  -23.6003    1.0000 </r>
       <r>  -23.5997    1.0000 </r>
       <r>  -23.5947    1.0000 </r>
       <r>  -23.4936    1.0000 </r>
       <r>  -23.4932    1.0000 </r>
       <r>  -23.4888    1.0000 </r>
       <r>  -21.8284    1.0000 </r>
       <r>  -21.7852    1.0000 </r>
       <r>  -20.9967    1.0000 </r>
       <r>  -20.9941    1.0000 </r>
       <r>  -20.8755    1.0000 </r>
       <r>  -19.5687    1.0000 </r>
       <r>  -19.5649    1.0000 </r>
       <r>  -19.2450    1.0000 </r>
       <r>  -19.2371    1.0000 </r>
       <r>  -19.1342    1.0000 </r>
       <r>  -19.0281    1.0000 </r>
       <r>  -19.0274    1.0000 </r>
       <r>  -18.4331    1.0000 </r>
       <r>  -18.1607    1.0000 </r>
       <r>  -18.1584    1.0000 </r>
       <r>  -17.0690    1.0000 </r>
       <r>  -17.0625    1.0000 </r>
       <r>  -17.0623    1.0000 </r>
       <r>  -16.7153    1.0000 </r>
       <r>  -16.7146    1.0000 </r>
       <r>  -16.6846    1.0000 </r>
       <r>  -15.8544    1.0000 </r>
       <r>  -15.8505    1.0000 </r>
       <r>  -15.3601    1.0000 </r>
       <r>  -15.3396    1.0000 </r>
       <r>  -15.2464    1.0000 </r>
       <r>  -15.0309    1.0000 </r>
       <r>  -14.7062    1.0000 </r>
       <r>  -14.7043    1.0000 </r>
       <r>  -14.5649    1.0000 </r>
       <r>  -14.5629    1.0000 </r>
       <r>  -14.3099    1.0000 </r>
       <r>  -13.9890    1.0000 </r>
       <r>  -13.5357    1.0000 </r>
       <r>  -13.5353    1.0000 </r>
       <r>  -13.4882    1.0000 </r>
       <r>  -13.1630    1.0000 </r>
       <r>  -13.1574    1.0000 </r>
       <r>  -12.8740    1.0000 </r>
       <r>  -12.7722    1.0000 </r>
       <r>  -12.7715    1.0000 </r>
       <r>  -12.6388    1.0000 </r>
       <r>  -12.1885    1.0000 </r>
       <r>  -11.9144    1.0000 </r>
       <r>  -11.4600    1.0000 </r>
       <r>  -11.4565    1.0000 </r>
       <r>  -11.3930    1.0000 </r>
       <r>  -11.3488    1.0000 </r>
       <r>  -11.3475    1.0000 </r>
       <r>  -11.1896    1.0000 </r>
       <r>  -10.9538    1.0000 </r>
       <r>  -10.9497    1.0000 </r>
       <r>  -10.8961    1.0000 </r>
       <r>  -10.8529    1.0000 </r>
       <r>  -10.8111    1.0000 </r>
       <r>  -10.7833    1.0000 </r>
       <r>  -10.7721    1.0000 </r>
       <r>  -10.5184    1.0000 </r>
       <r>  -10.5162    1.0000 </r>
       <r>  -10.3019    1.0000 </r>
       <r>  -10.2389    1.0000 </r>
       <r>  -10.2324    1.0000 </r>
       <r>  -10.2294    1.0000 </r>
       <r>  -10.1796    1.0000 </r>
       <r>  -10.1777    1.0000 </r>
       <r>  -10.0784    1.0000 </r>
       <r>  -10.0764    1.0000 </r>
       <r>  -10.0558    1.0000 </r>
       <r>  -10.0410    1.0000 </r>
       <r>  -10.0406    1.0000 </r>
       <r>   -9.9268    1.0000 </r>
       <r>   -9.7322    1.0000 </r>
       <r>   -9.7302    1.0000 </r>
       <r>   -9.6476    1.0000 </r>
       <r>   -9.5875    1.0000 </r>
       <r>   -9.5861    1.0000 </r>
       <r>   -9.5552    1.0000 </r>
       <r>   -9.4176    1.0000 </r>
       <r>   -9.1479    1.0000 </r>
       <r>   -8.9867    1.0000 </r>
       <r>   -8.9852    1.0000 </r>
       <r>   -8.9152    1.0000 </r>
       <r>   -8.9062    1.0000 </r>
       <r>   -8.8289    1.0000 </r>
       <r>   -8.7988    1.0000 </r>
       <r>   -8.7923    1.0000 </r>
       <r>   -8.6926    1.0000 </r>
       <r>   -8.6919    1.0000 </r>
       <r>   -8.4391    1.0000 </r>
       <r>   -8.1786    1.0000 </r>
       <r>   -8.1755    1.0000 </r>
       <r>   -8.1728    1.0000 </r>
       <r>   -8.0119    1.0000 </r>
       <r>   -8.0056    1.0000 </r>
       <r>   -7.7469    1.0000 </r>
       <r>   -6.7993    1.0000 </r>
       <r>   -6.7982    1.0000 </r>
       <r>   -6.6867    1.0000 </r>
       <r>   -6.6632    1.0000 </r>
       <r>   -6.6559    1.0000 </r>
       <r>   -6.5547    1.0000 </r>
       <r>   -6.5538    1.0000 </r>
       <r>   -6.0414    1.0000 </r>
       <r>   -6.0367    1.0000 </r>
       <r>   -6.0320    1.0000 </r>
       <r>   -6.0298    1.0000 </r>
       <r>   -5.9185    1.0000 </r>
       <r>   -5.8357    1.0000 </r>
       <r>   -5.8305    1.0000 </r>
       <r>   -5.6944    1.0000 </r>
       <r>   -5.6933    1.0000 </r>
       <r>   -4.9251    1.0000 </r>
       <r>   -4.8976    1.0000 </r>
       <r>   -4.8959    1.0000 </r>
       <r>   -2.5996    0.0000 </r>
       <r>   -2.5978    0.0000 </r>
       <r>   -2.3203    0.0000 </r>
       <r>   -2.3130    0.0000 </r>
       <r>   -1.7797    0.0000 </r>
       <r>   -1.0850    0.0000 </r>
       <r>   -1.0191    0.0000 </r>
       <r>   -1.0180    0.0000 </r>
       <r>   -1.0051    0.0000 </r>
       <r>   -0.6407    0.0000 </r>
       <r>   -0.6204    0.0000 </r>
       <r>   -0.4725    0.0000 </r>
       <r>   -0.3337    0.0000 </r>
       <r>   -0.1295    0.0000 </r>
       <r>   -0.1250    0.0000 </r>
       <r>   -0.0586    0.0000 </r>
       <r>   -0.0551    0.0000 </r>
       <r>    0.0219    0.0000 </r>
       <r>    0.4286    0.0000 </r>
       <r>    0.4607    0.0000 </r>
       <r>    0.5221    0.0000 </r>
       <r>    0.5903    0.0000 </r>
       <r>    0.5918    0.0000 </r>
       <r>    0.6132    0.0000 </r>
       <r>    0.6359    0.0000 </r>
       <r>    0.6827    0.0000 </r>
       <r>    0.6949    0.0000 </r>
       <r>    0.7639    0.0000 </r>
       <r>    0.7746    0.0000 </r>
       <r>    0.8515    0.0000 </r>
       <r>    0.8530    0.0000 </r>
       <r>    0.8951    0.0000 </r>
       <r>    0.9013    0.0000 </r>
       <r>    0.9263    0.0000 </r>
       <r>    0.9591    0.0000 </r>
       <r>    0.9833    0.0000 </r>
       <r>    1.0071    0.0000 </r>
       <r>    1.0154    0.0000 </r>
       <r>    1.0414    0.0000 </r>
       <r>    1.0535    0.0000 </r>
       <r>    1.0698    0.0000 </r>
       <r>    1.0990    0.0000 </r>
       <r>    1.1237    0.0000 </r>
       <r>    1.1455    0.0000 </r>
       <r>    1.1713    0.0000 </r>
       <r>    1.2175    0.0000 </r>
       <r>    1.2193    0.0000 </r>
       <r>    1.3455    0.0000 </r>
       <r>    1.3982    0.0000 </r>
       <r>    1.4057    0.0000 </r>
      </set>
      <set comment="kpoint 5">
       <r>  -25.9071    1.0000 </r>
       <r>  -25.8951    1.0000 </r>
       <r>  -25.8908    1.0000 </r>
       <r>  -25.8878    1.0000 </r>
       <r>  -25.8786    1.0000 </r>
       <r>  -25.8752    1.0000 </r>
       <r>  -23.6002    1.0000 </r>
       <r>  -23.5997    1.0000 </r>
       <r>  -23.5948    1.0000 </r>
       <r>  -23.4936    1.0000 </r>
       <r>  -23.4932    1.0000 </r>
       <r>  -23.4888    1.0000 </r>
       <r>  -21.8280    1.0000 </r>
       <r>  -21.7857    1.0000 </r>
       <r>  -20.9967    1.0000 </r>
       <r>  -20.9928    1.0000 </r>
       <r>  -20.8769    1.0000 </r>
       <r>  -19.5686    1.0000 </r>
       <r>  -19.5623    1.0000 </r>
       <r>  -19.2512    1.0000 </r>
       <r>  -19.2371    1.0000 </r>
       <r>  -19.1312    1.0000 </r>
       <r>  -19.0281    1.0000 </r>
       <r>  -19.0274    1.0000 </r>
       <r>  -18.4298    1.0000 </r>
       <r>  -18.1634    1.0000 </r>
[...]
       <r>   -26.0710     0.0000     0.0000 </r>
       <r>   -25.9708     0.0000     0.0000 </r>
       <r>   -25.8707   111.8655    11.2077 </r>
       <r>   -25.7705     0.0000    12.0000 </r>
       <r>   -25.6703     0.0000    12.0000 </r>
       <r>   -25.5701     0.0000    12.0000 </r>
       <r>   -25.4699     0.0000    12.0000 </r>
       <r>   -25.3697     0.0000    12.0000 </r>
       <r>   -25.2695     0.0000    12.0000 </r>
       <r>   -25.1693     0.0000    12.0000 </r>
       <r>   -25.0691     0.0000    12.0000 </r>
       <r>   -24.9690     0.0000    12.0000 </r>
       <r>   -24.8688     0.0000    12.0000 </r>
       <r>   -24.7686     0.0000    12.0000 </r>
       <r>   -24.6684     0.0000    12.0000 </r>
       <r>   -24.5682     0.0000    12.0000 </r>
       <r>   -24.4680     0.0000    12.0000 </r>
       <r>   -24.3678     0.0000    12.0000 </r>
       <r>   -24.2676     0.0000    12.0000 </r>
       <r>   -24.1674     0.0000    12.0000 </r>
       <r>   -24.0673     0.0000    12.0000 </r>
       <r>   -23.9671     0.0000    12.0000 </r>
       <r>   -23.8669     0.0000    12.0000 </r>
       <r>   -23.7667     0.0000    12.0000 </r>
       <r>   -23.6665     0.0000    12.0000 </r>
       <r>   -23.5663    59.8864    18.0000 </r>
       <r>   -23.4661    59.8739    23.9987 </r>
       <r>   -23.3659     0.0000    24.0000 </r>
       <r>   -23.2657     0.0000    24.0000 </r>
       <r>   -23.1656     0.0000    24.0000 </r>
       <r>   -23.0654     0.0000    24.0000 </r>
       <r>   -22.9652     0.0000    24.0000 </r>
       <r>   -22.8650     0.0000    24.0000 </r>
       <r>   -22.7648     0.0000    24.0000 </r>
       <r>   -22.6646     0.0000    24.0000 </r>
       <r>   -22.5644     0.0000    24.0000 </r>
       <r>   -22.4642     0.0000    24.0000 </r>
       <r>   -22.3640     0.0000    24.0000 </r>
       <r>   -22.2639     0.0000    24.0000 </r>
       <r>   -22.1637     0.0000    24.0000 </r>
       <r>   -22.0635     0.0000    24.0000 </r>
       <r>   -21.9633     0.0000    24.0000 </r>
       <r>   -21.8631     0.0000    24.0000 </r>
       <r>   -21.7629    39.9208    27.9996 </r>
       <r>   -21.6627     0.0000    28.0000 </r>
       <r>   -21.5625     0.0000    28.0000 </r>
       <r>   -21.4623     0.0000    28.0000 </r>
       <r>   -21.3622     0.0000    28.0000 </r>
       <r>   -21.2620     0.0000    28.0000 </r>
       <r>   -21.1618     0.0000    28.0000 </r>
       <r>   -21.0616     0.0000    28.0000 </r>
       <r>   -20.9614    30.7370    31.0795 </r>
       <r>   -20.8612    19.8691    33.9907 </r>
       <r>   -20.7610     0.0000    34.0000 </r>
       <r>   -20.6608     0.0000    34.0000 </r>
       <r>   -20.5606     0.0000    34.0000 </r>
       <r>   -20.4604     0.0000    34.0000 </r>
       <r>   -20.3603     0.0000    34.0000 </r>
       <r>   -20.2601     0.0000    34.0000 </r>
       <r>   -20.1599     0.0000    34.0000 </r>
       <r>   -20.0597     0.0000    34.0000 </r>
       <r>   -19.9595     0.0000    34.0000 </r>
       <r>   -19.8593     0.0000    34.0000 </r>
       <r>   -19.7591     0.0000    34.0000 </r>
       <r>   -19.6589     0.0000    34.0000 </r>
       <r>   -19.5587    21.5309    36.1572 </r>
       <r>   -19.4586    12.5298    37.8554 </r>
       <r>   -19.3584    10.1458    39.0165 </r>
       <r>   -19.2582     5.3166    39.6661 </r>
       <r>   -19.1580    21.2676    42.0005 </r>
       <r>   -19.0578    18.6309    44.0000 </r>
       <r>   -18.9576    39.9241    48.0000 </r>
       <r>   -18.8574     0.0000    48.0000 </r>
       <r>   -18.7572     0.0000    48.0000 </r>
       <r>   -18.6570     0.0000    48.0000 </r>
       <r>   -18.5569     0.0000    48.0000 </r>
       <r>   -18.4567     0.0050    48.0005 </r>
       <r>   -18.3565     8.0098    48.9359 </r>
       <r>   -18.2563    12.0110    50.4702 </r>
       <r>   -18.1561    21.5902    53.1298 </r>
       <r>   -18.0559     0.0000    54.0000 </r>
       <r>   -17.9557     0.0000    54.0000 </r>
       <r>   -17.8555     0.0000    54.0000 </r>
       <r>   -17.7553     0.0000    54.0000 </r>
       <r>   -17.6552     0.0000    54.0000 </r>
       <r>   -17.5550     0.0000    54.0000 </r>
       <r>   -17.4548     0.0000    54.0000 </r>
       <r>   -17.3546     0.0000    54.0000 </r>
       <r>   -17.2544     0.0000    54.0000 </r>
       <r>   -17.1542     0.0000    54.0000 </r>
       <r>   -17.0540    54.8677    59.4971 </r>
       <r>   -16.9538     0.0000    60.0000 </r>
       <r>   -16.8536     0.0000    60.0000 </r>
       <r>   -16.7535     0.0000    60.0000 </r>
       <r>   -16.6533    59.8868    66.0000 </r>
       <r>   -16.5531     0.0000    66.0000 </r>
       <r>   -16.4529     0.0000    66.0000 </r>
       <r>   -16.3527     0.0000    66.0000 </r>
       <r>   -16.2525     0.0000    66.0000 </r>
       <r>   -16.1523     0.0000    66.0000 </r>
       <r>   -16.0521     0.0000    66.0000 </r>
       <r>   -15.9519     0.0000    66.0000 </r>
       <r>   -15.8518    14.1976    67.4224 </r>
       <r>   -15.7516     5.2651    68.9609 </r>
       <r>   -15.6514     8.6484    70.0000 </r>
       <r>   -15.5512     9.9148    70.9934 </r>
       <r>   -15.4510     3.3272    71.4001 </r>
       <r>   -15.3508     4.3876    71.9396 </r>
       <r>   -15.2506     1.7360    74.1739 </r>
       <r>   -15.1504    16.2776    75.9975 </r>
       <r>   -15.0502     0.0137    76.0014 </r>
       <r>   -14.9501    16.9654    78.0000 </r>
       <r>   -14.8499     0.0000    78.0000 </r>
       <r>   -14.7497     0.3402    78.0341 </r>
       <r>   -14.6495    28.7400    82.0462 </r>
       <r>   -14.5493    25.1430    84.8857 </r>
       <r>   -14.4491     3.9903    86.0000 </r>
       <r>   -14.3489     0.0000    86.0000 </r>
       <r>   -14.2487     7.0966    86.7110 </r>
       <r>   -14.1485    11.6440    88.0000 </r>
       <r>   -14.0483     0.0022    88.0002 </r>
       <r>   -13.9482    19.9601    90.0000 </r>
       <r>   -13.8480     0.0000    90.0000 </r>
       <r>   -13.7478     0.0000    90.0000 </r>
       <r>   -13.6476     0.0000    90.0000 </r>
       <r>   -13.5474    31.0838    93.1143 </r>
       <r>   -13.4472    11.9739    96.0000 </r>
       <r>   -13.3470     0.0000    96.0000 </r>
       <r>   -13.2468     0.0000    96.0000 </r>
       <r>   -13.1466    19.7433    97.9781 </r>
       <r>   -13.0465    14.3054   100.0000 </r>
       <r>   -12.9463     0.0000   100.0000 </r>
       <r>   -12.8461    19.9618   102.0000 </r>
       <r>   -12.7459    39.9194   105.9995 </r>
       <r>   -12.6457     1.9426   106.1946 </r>
       <r>   -12.5455     0.0000   108.0000 </r>
       <r>   -12.4453     0.0000   108.0000 </r>
       <r>   -12.3451     0.0000   108.0000 </r>
       <r>   -12.2449     0.0000   108.0000 </r>
       <r>   -12.1448     7.3454   108.7359 </r>
       <r>   -12.0446    12.7449   110.1770 </r>
       <r>   -11.9444     9.6209   111.4306 </r>
       <r>   -11.8442     3.6593   112.0000 </r>
       <r>   -11.7440     0.0000   112.0000 </r>
       <r>   -11.6438     0.0000   112.0000 </r>
       <r>   -11.5436     0.0000   112.0000 </r>
       <r>   -11.4434    32.9214   115.2984 </r>
       <r>   -11.3432    34.0763   119.4141 </r>
       <r>   -11.2431    15.2106   122.1243 </r>
       <r>   -11.1429     9.9804   124.0000 </r>
       <r>   -11.0427     0.0000   124.0000 </r>
       <r>   -10.9425    25.2788   126.5327 </r>
       <r>   -10.8423    51.8882   133.1986 </r>
       <r>   -10.7421    29.1614   136.5550 </r>
       <r>   -10.6419    12.3093   138.0000 </r>
       <r>   -10.5417    13.4202   139.3446 </r>
       <r>   -10.4415    23.2840   142.0000 </r>
       <r>   -10.3414     0.0000   142.0000 </r>
       <r>   -10.2412    35.6308   145.5698 </r>
       <r>   -10.1410    54.2286   154.0000 </r>
       <r>   -10.0408    69.3207   160.9452 </r>
       <r>    -9.9406    13.7748   165.3801 </r>
       <r>    -9.8404     0.0000   166.0000 </r>
       <r>    -9.7402    12.5642   167.2588 </r>
       <r>    -9.6400    32.6265   171.9356 </r>
       <r>    -9.5398    59.7484   177.9861 </r>
       <r>    -9.4397     0.0040   178.0004 </r>
       <r>    -9.3395    19.9583   180.0000 </r>
       <r>    -9.2393     3.4607   180.3467 </r>
       <r>    -9.1391     8.2908   181.9307 </r>
       <r>    -9.0389     0.0000   182.0000 </r>
       <r>    -8.9387    39.8538   185.9929 </r>
       <r>    -8.8385    42.9022   190.2997 </r>
       <r>    -8.7383    35.5001   195.5567 </r>
       <r>    -8.6381    39.9245   200.0000 </r>
       <r>    -8.5380    11.1952   201.1216 </r>
       <r>    -8.4378     5.8853   201.8230 </r>
       <r>    -8.3376     0.0000   202.0000 </r>
       <r>    -8.2374     0.0000   202.0000 </r>
       <r>    -8.1372    59.8868   208.0000 </r>
       <r>    -8.0370     0.0033   208.0003 </r>
       <r>    -7.9368    28.0763   210.8133 </r>
       <r>    -7.8366    11.4024   212.1091 </r>
       <r>    -7.7364    14.3283   213.9691 </r>
       <r>    -7.6362     0.0000   214.0000 </r>
       <r>    -7.5361     0.0000   214.0000 </r>
       <r>    -7.4359     0.0000   214.0000 </r>
       <r>    -7.3357     0.0000   214.0000 </r>
       <r>    -7.2355     0.0000   214.0000 </r>
       <r>    -7.1353     0.0000   214.0000 </r>
       <r>    -7.0351     0.0000   214.0000 </r>
       <r>    -6.9349     0.0000   214.0000 </r>
       <r>    -6.8347     0.0000   214.0000 </r>
       <r>    -6.7345    49.7923   218.9886 </r>
       <r>    -6.6344    31.8159   222.5543 </r>
       <r>    -6.5342    50.8358   227.9933 </r>
       <r>    -6.4340     0.0000   228.0000 </r>
       <r>    -6.3338     0.0000   228.0000 </r>
       <r>    -6.2336     0.0000   228.0000 </r>
       <r>    -6.1334     0.0000   228.0000 </r>
       <r>    -6.0332    38.3771   231.8450 </r>
       <r>    -5.9330    24.6935   237.5411 </r>
       <r>    -5.8328    15.4636   239.5493 </r>
       <r>    -5.7327    18.5496   242.3585 </r>
       <r>    -5.6325    27.9465   246.0000 </r>
       <r>    -5.5323     0.0000   246.0000 </r>
       <r>    -5.4321     0.0000   246.0000 </r>
       <r>    -5.3319     0.0000   246.0000 </r>
       <r>    -5.2317     0.0000   246.0000 </r>
       <r>    -5.1315     0.0000   246.0000 </r>
       <r>    -5.0313     0.0000   246.0000 </r>
       <r>    -4.9311     1.4274   246.1430 </r>
       <r>    -4.8310    39.9213   252.0000 </r>
       <r>    -4.7308     0.0000   252.0000 </r>
       <r>    -4.6306     0.0000   252.0000 </r>
       <r>    -4.5304     0.0000   252.0000 </r>
       <r>    -4.4302     0.0000   252.0000 </r>
       <r>    -4.3300     0.0000   252.0000 </r>
       <r>    -4.2298     0.0000   252.0000 </r>
       <r>    -4.1296     0.0000   252.0000 </r>
       <r>    -4.0294     0.0000   252.0000 </r>
       <r>    -3.9293     0.0000   252.0000 </r>
       <r>    -3.8291     0.0000   252.0000 </r>
       <r>    -3.7289     0.0000   252.0000 </r>
       <r>    -3.6287     0.0000   252.0000 </r>
       <r>    -3.5285     0.0000   252.0000 </r>
       <r>    -3.4283     0.0000   252.0000 </r>
       <r>    -3.3281     0.0000   252.0000 </r>
       <r>    -3.2279     0.0000   252.0000 </r>
       <r>    -3.1277     0.0000   252.0000 </r>
       <r>    -3.0276     0.0000   252.0000 </r>
       <r>    -2.9274     0.0000   252.0000 </r>
       <r>    -2.8272     0.0000   252.0000 </r>
       <r>    -2.7270     0.0000   252.0000 </r>
       <r>    -2.6268     0.0014   252.0001 </r>
       <r>    -2.5266    33.7913   255.3857 </r>
       <r>    -2.4264    12.1845   257.0209 </r>
       <r>    -2.3262     6.5032   257.7850 </r>
       <r>    -2.2260     0.0000   260.0000 </r>
       <r>    -2.1259     0.0000   260.0000 </r>
       <r>    -2.0257     0.0000   260.0000 </r>
       <r>    -1.9255     0.0000   260.0000 </r>
       <r>    -1.8253     0.0000   260.0000 </r>
       <r>    -1.7251     5.1911   260.5201 </r>
       <r>    -1.6249     2.8135   260.8819 </r>
       <r>    -1.5247     6.8471   261.6527 </r>
       <r>    -1.4245     3.6555   262.1662 </r>
       <r>    -1.3243     6.8734   262.9887 </r>
       <r>    -1.2241     2.2293   263.2900 </r>
       <r>    -1.1240     2.3072   263.5978 </r>
       <r>    -1.0238    16.2498   265.2948 </r>
       <r>    -0.9236     1.9945   270.0000 </r>
       <r>    -0.8234     0.0000   270.0000 </r>
       <r>    -0.7232     0.0000   270.0000 </r>
       <r>    -0.6230    21.7959   272.1837 </r>
       <r>    -0.5228     2.7541   272.5759 </r>
       <r>    -0.4226    21.2637   274.7637 </r>
       <r>    -0.3224    20.7095   277.4417 </r>
       <r>    -0.2223     3.7764   278.0117 </r>
       <r>    -0.1221    33.2146   281.5278 </r>
       <r>    -0.0219    35.6305   285.8699 </r>
       <r>     0.0783    10.9775   288.0000 </r>
       <r>     0.1785     0.0000   288.0000 </r>
       <r>     0.2787     0.0000   288.0000 </r>
       <r>     0.3789     0.0000   288.0000 </r>
       <r>     0.4791    41.0153   292.1093 </r>
       <r>     0.5793    39.5212   297.1597 </r>
       <r>     0.6794    50.3492   303.7113 </r>
       <r>     0.7796    29.6393   308.3363 </r>
       <r>     0.8798    47.2001   314.2291 </r>
       <r>     0.9800    63.8432   322.1971 </r>
       <r>     1.0802    66.4595   331.0588 </r>
       <r>     1.1804    60.5696   337.9356 </r>
       <r>     1.2806    65.9534   345.2747 </r>
       <r>     1.3808    38.1489   350.3557 </r>
       <r>     1.4810     9.3133   352.0000 </r>
       <r>     1.5811     0.0000   352.0000 </r>
       <r>     1.6813     0.0000   352.0000 </r>
       <r>     1.7815     0.0000   352.0000 </r>
       <r>     1.8817     0.0000   352.0000 </r>
       <r>     1.9819     0.0000   352.0000 </r>
       <r>     2.0821     0.0000   352.0000 </r>
       <r>     2.1823     0.0000   352.0000 </r>
       <r>     2.2825     0.0000   352.0000 </r>
       <r>     2.3827     0.0000   352.0000 </r>
       <r>     2.4828     0.0000   352.0000 </r>
       <r>     2.5830     0.0000   352.0000 </r>
       <r>     2.6832     0.0000   352.0000 </r>
       <r>     2.7834     0.0000   352.0000 </r>
      </set>
     </set>
    </array>
   </total>
  </dos>
 </calculation>
 <structure name="finalpos" >
  <crystal>
   <varray name="basis" >
    <v>      22.59570406      -0.00613524       0.00000000 </v>
    <v>     -11.30321079      19.59842641       0.00000000 </v>
    <v>       0.00000000       0.00000000      20.00000000 </v>
   </varray>
   <i name="volume">   8855.41790593 </i>
   <varray name="rec_basis" >
    <v>       0.04426313       0.02552835       0.00000000 </v>
    <v>       0.00001386       0.05103250       0.00000000 </v>
    <v>       0.00000000       0.00000000       0.05000000 </v>
   </varray>
  </crystal>
  <varray name="positions" >
   <v>       0.29241647       0.75244061       0.52068661 </v>
   <v>       0.45165451       0.70102341       0.51611612 </v>
   <v>       0.24099917       0.54201040       0.51838457 </v>
   <v>       0.69917134       0.24543721       0.50346787 </v>
   <v>       0.53770994       0.29372084       0.50097249 </v>
   <v>       0.74738901       0.45490928       0.50417596 </v>
   <v>       0.43696095       0.06531380       0.52628872 </v>
   <v>       0.33370113       0.96759680       0.55028544 </v>
   <v>       0.31835870       0.89384903       0.50550159 </v>
   <v>       0.33895584       0.90141664       0.59206667 </v>
   <v>       0.36961090       0.83800274       0.53499116 </v>
   <v>       0.61989997       0.55567377       0.52764326 </v>
   <v>       0.62546505       0.65887250       0.55157906 </v>
   <v>       0.56815640       0.67516645       0.50581066 </v>
   <v>       0.55324733       0.65346670       0.59203992 </v>
   <v>       0.46043487       0.62418497       0.53268918 </v>
   <v>       0.92782854       0.37336342       0.52865823 </v>
   <v>       0.02582272       0.36791146       0.55183941 </v>
   <v>       0.09928203       0.42626307       0.50655570 </v>
   <v>       0.09247282       0.43934265       0.59326700 </v>
   <v>       0.15544694       0.53309605       0.53514018 </v>
   <v>       0.55470939       0.93095217       0.49735285 </v>
   <v>       0.61958749       0.05677161       0.48463922 </v>
   <v>       0.62260660       0.15780501       0.48940741 </v>
   <v>       0.36851801       0.43986248       0.49270340 </v>
   <v>       0.42929715       0.37465701       0.48098321 </v>
   <v>       0.52682572       0.37065161       0.48862342 </v>
   <v>       0.06219830       0.62533321       0.50002161 </v>
   <v>       0.93618575       0.56433627       0.48773026 </v>
   <v>       0.83509625       0.46614375       0.49152131 </v>
   <v>       0.34662821       0.61416916       0.51967461 </v>
   <v>       0.27776989       0.59662616       0.52070099 </v>
   <v>       0.25909574       0.64694762       0.52198766 </v>
   <v>       0.31040208       0.71573138       0.52185418 </v>
   <v>       0.39701195       0.68312931       0.51941091 </v>
   <v>       0.36061789       0.55576879       0.51570602 </v>
   <v>       0.18655082       0.63302894       0.52021040 </v>
   <v>       0.64218583       0.38158965       0.50047818 </v>
   <v>       0.71132589       0.40015941       0.50149587 </v>
   <v>       0.73100566       0.35062336       0.50160436 </v>
   <v>       0.68048922       0.28153934       0.50104529 </v>
   <v>       0.59257704       0.31239871       0.49975946 </v>
   <v>       0.62738957       0.43946991       0.50354907 </v>
   <v>       0.80377846       0.36564668       0.50558303 </v>
   <v>       0.46232333       0.03558617       0.52012664 </v>
   <v>       0.42547529       0.96485316       0.52764002 </v>
   <v>       0.45925916       0.92692086       0.51883331 </v>
   <v>       0.35049840       0.93002703       0.54467347 </v>
   <v>       0.56496796       0.53071573       0.52016453 </v>
   <v>       0.53119124       0.56779440       0.52694783 </v>
   <v>       0.45966179       0.53452402       0.51669677 </v>
   <v>       0.57123952       0.64243665       0.54493832 </v>
   <v>       0.95755942       0.42840384       0.52247765 </v>
   <v>       0.02840956       0.46230556       0.52963842 </v>
   <v>       0.06631427       0.53398361       0.52099821 </v>
   <v>       0.06340889       0.42223723       0.54611000 </v>
   <v>       0.37945229       0.73436701       0.52061061 </v>
   <v>       0.43797632       0.80675567       0.51710869 </v>
   <v>       0.61120379       0.26189961       0.50000374 </v>
   <v>       0.55329305       0.18918663       0.50264980 </v>
   <v>       0.53224366       0.06933557       0.50449144 </v>
   <v>       0.52930516       0.96060358       0.50354906 </v>
   <v>       0.56510146       0.03106735       0.49647295 </v>
   <v>       0.52886785       0.46108431       0.50368274 </v>
   <v>       0.42341884       0.46485404       0.50022093 </v>
   <v>       0.45797886       0.42883838       0.49379343 </v>
   <v>       0.92369510       0.46450745       0.50721215 </v>
   <v>       0.03254014       0.57029450       0.50608301 </v>
   <v>       0.96196521       0.53559450       0.49925650 </v>
   <v>       0.49720014       0.81911370       0.50729388 </v>
   <v>       0.31370425       0.49652510       0.50647410 </v>
   <v>       0.17400502       0.68000746       0.51280294 </v>
   <v>       0.49347589       0.17613038       0.50969696 </v>
   <v>       0.67406212       0.49907222       0.51157375 </v>
   <v>       0.81693109       0.31911444       0.51355620 </v>
   <v>       0.41967476       0.85571819       0.52497216 </v>
   <v>       0.42806569       0.57417668       0.52272475 </v>
   <v>       0.13760465       0.56558657       0.52673841 </v>
   <v>       0.57223734       0.14046940       0.49757833 </v>
   <v>       0.55982316       0.42078740       0.49762567 </v>
   <v>       0.85245927       0.43328875       0.50039809 </v>
  </varray>
 </structure>
</modeling>
