<?xml version="1.0" encoding="ISO-8859-1"?>
<modeling>
 <generator>
  <i name="program" type="string">vasp </i>
  <i name="version" type="string">5.4.4.18Apr17-6-g9f103f2a35  </i>
  <i name="subversion" type="string">(build Jun 07 2020 16:50:00) complex            parallel </i>
  <i name="platform" type="string">LinuxIFC </i>
  <i name="date" type="string">2023 02 22 </i>
  <i name="time" type="string">11:07:02 </i>
 </generator>
 <incar>
  <i type="string" name="SYSTEM">Simulation for cell shape cell volume r</i>
  <i type="int" name="ISTART">     1</i>
  <i type="string" name="PREC">high</i>
  <i type="string" name="ALGO">48</i>
  <i type="int" name="ICHARG">    11</i>
  <i type="int" name="NELM">   200</i>
  <i type="int" name="IBRION">    -1</i>
  <i name="EDIFF">      0.00001000</i>
  <i name="EDIFFG">     -0.01000000</i>
  <i type="int" name="NSW">     0</i>
  <i type="int" name="ISIF">     2</i>
  <i name="ENCUT">    500.00000000</i>
  <i name="POTIM">      0.30000000</i>
  <i type="string" name="LREAL">A</i>
  <i type="int" name="ISMEAR">     0</i>
  <i name="SIGMA">      0.01000000</i>
  <i type="int" name="NWRITE">     0</i>
  <i type="logical" name="LWAVE"> F  </i>
  <i type="logical" name="LCHARG"> F  </i>
  <v type="int" name="KPOINT_BSE">    -1     0     0     0</v>
  <i type="int" name="NELM">   200</i>
  <i type="string" name="GGA">PE</i>
 </incar>
 <structure name="primitive_cell" >
  <crystal>
   <varray name="basis" >
    <v>      29.90352011      -0.00270176       0.00000000 </v>
    <v>     -14.95400014      25.88684708       0.00000000 </v>
    <v>       0.00000000       0.00000000      20.00000000 </v>
   </varray>
   <i name="volume">  15481.34899884 </i>
   <varray name="rec_basis" >
    <v>       0.03344262       0.01931873       0.00000000 </v>
    <v>       0.00000349       0.03863167       0.00000000 </v>
    <v>       0.00000000       0.00000000       0.05000000 </v>
   </varray>
  </crystal>
  <varray name="positions" >
   <v>       0.14962227      -0.39647571       0.47538181 </v>
   <v>       0.12830644      -0.38305463       0.44501960 </v>
   <v>       0.20342198      -0.36948918       0.47437809 </v>
   <v>       0.12203193      -0.44066058      -0.48459188 </v>
   <v>       0.22383568      -0.33547549       0.44251253 </v>
   <v>       0.15046292      -0.45713892      -0.44618218 </v>
   <v>       0.23181824      -0.38600940      -0.48718996 </v>
   <v>       0.06472454      -0.46931814      -0.48491345 </v>
   <v>       0.20423782      -0.43053361      -0.44771326 </v>
   <v>       0.06250327      -0.47730852       0.40827802 </v>
   <v>       0.03909242      -0.48537367       0.45341797 </v>
   <v>       0.13003663      -0.49165275      -0.41523993 </v>
   <v>       0.09564399      -0.42672001      -0.35960877 </v>
   <v>       0.03507782      -0.48074804      -0.42578644 </v>
   <v>       0.28898282      -0.35735505      -0.48790596 </v>
   <v>       0.22535229      -0.44391570      -0.41690062 </v>
   <v>       0.29541409      -0.28213541      -0.48775911 </v>
   <v>       0.05900125      -0.46347730      -0.35743871 </v>
   <v>       0.31654083      -0.30315157      -0.48792644 </v>
   <v>      -0.01468890       0.48747032       0.44716856 </v>
   <v>       0.06732191      -0.49188773      -0.33408430 </v>
   <v>      -0.01871033       0.49209736      -0.43203515 </v>
   <v>       0.31668382      -0.38383444      -0.48798473 </v>
   <v>       0.29567598      -0.42599551      -0.48783242 </v>
   <v>       0.03263374      -0.45870262      -0.32384298 </v>
   <v>      -0.04433921       0.47605732      -0.49371208 </v>
   <v>      -0.01223237       0.46533066       0.34527945 </v>
   <v>      -0.03859876       0.47015075       0.37882535 </v>
   <v>      -0.04689911       0.49854502       0.35537452 </v>
   <v>      -0.04212149       0.48400416      -0.38688143 </v>
   <v>       0.37073219      -0.27543062      -0.48786730 </v>
   <v>       0.34797850      -0.21185776      -0.41652891 </v>
   <v>       0.37087169      -0.35717548      -0.48792623 </v>
   <v>      -0.07525755       0.43340394       0.38101549 </v>
   <v>       0.39736691      -0.30297365      -0.48793415 </v>
   <v>      -0.10163955       0.44743432      -0.49411974 </v>
   <v>       0.39926275      -0.21825049      -0.48712170 </v>
   <v>       0.38241125      -0.19069856      -0.44746035 </v>
   <v>      -0.10948954       0.49845907       0.43642276 </v>
   <v>       0.34921255      -0.44404253       0.44212285 </v>
   <v>      -0.12998114       0.46395294       0.46735388 </v>
   <v>       0.39950211      -0.38570255      -0.48720903 </v>
   <v>      -0.10805930       0.38973900      -0.42379284 </v>
   <v>       0.38311017      -0.43052459       0.47416087 </v>
   <v>      -0.12931085       0.40321614      -0.45418502 </v>
   <v>       0.43951335      -0.28182405      -0.48774664 </v>
   <v>       0.44409155      -0.18981380       0.47429004 </v>
   <v>       0.40958651      -0.13691152      -0.44590486 </v>
   <v>       0.45761734      -0.21020821       0.44229839 </v>
   <v>       0.39557764      -0.11651883      -0.41478867 </v>
   <v>       0.44388452      -0.36885304      -0.44750202 </v>
   <v>      -0.18375394       0.43736567       0.46869698 </v>
   <v>       0.45714987      -0.33443251      -0.41653478 </v>
   <v>       0.47090336      -0.13599912       0.47529698 </v>
   <v>       0.41009418      -0.45733276       0.47519124 </v>
   <v>       0.45439864      -0.10843942      -0.48449400 </v>
   <v>      -0.18310864       0.37625365      -0.45336052 </v>
   <v>       0.39678161      -0.49199551       0.44468174 </v>
   <v>      -0.20479225       0.45077921       0.43778343 </v>
   <v>      -0.21141929       0.39281810      -0.49189907 </v>
   <v>      -0.20359227       0.34221231      -0.42156503 </v>
   <v>       0.47048045      -0.39601871      -0.44593313 </v>
   <v>      -0.49443047      -0.11464373       0.44480398 </v>
   <v>       0.45413492      -0.44082537      -0.48454853 </v>
   <v>       0.48304596      -0.05112112      -0.48480772 </v>
   <v>       0.47698622      -0.04890524       0.40842088 </v>
   <v>       0.49513700      -0.08203669      -0.35975338 </v>
   <v>       0.45839325      -0.05374397      -0.33377104 </v>
   <v>      -0.49513113      -0.38201607      -0.41478663 </v>
   <v>       0.49244157      -0.02548145       0.45354444 </v>
   <v>       0.43998532      -0.48129088      -0.35971585 </v>
   <v>      -0.26858549       0.36418749      -0.49132951 </v>
   <v>       0.49503438      -0.04539820      -0.35741776 </v>
   <v>      -0.49856182      -0.02146490      -0.42571159 </v>
   <v>      -0.27526060       0.43283731      -0.49136913 </v>
   <v>       0.48279531      -0.46945847      -0.48483243 </v>
   <v>       0.49101550      -0.46346442       0.40838835 </v>
   <v>      -0.27500752       0.28898246      -0.49154455 </v>
   <v>      -0.29627471       0.39067847      -0.49125304 </v>
   <v>       0.47666266      -0.48130790      -0.35741622 </v>
   <v>      -0.29614299       0.30998714      -0.49133313 </v>
   <v>       0.49899388      -0.47889459       0.45352059 </v>
   <v>       0.49416572       0.02578904       0.34553725 </v>
   <v>      -0.47368574      -0.01902019      -0.32397789 </v>
   <v>      -0.48096405       0.02831511       0.44730216 </v>
   <v>      -0.49494109      -0.44468250      -0.33377287 </v>
   <v>       0.49411137      -0.48778295      -0.42572292 </v>
   <v>      -0.47196455       0.03233881      -0.43194566 </v>
   <v>       0.47166338       0.48737360      -0.32397160 </v>
   <v>      -0.47458426       0.05221668       0.37899098 </v>
   <v>      -0.46257340       0.05797239      -0.49360136 </v>
   <v>      -0.32871913       0.45085279      -0.42123236 </v>
   <v>      -0.35046213       0.36402443      -0.49128240 </v>
   <v>      -0.45651791       0.05575545      -0.38681007 </v>
   <v>      -0.32764101       0.21856387       0.43754167 </v>
   <v>      -0.35032730       0.28227236      -0.49132541 </v>
   <v>      -0.47381711       0.49451971       0.44728158 </v>
   <v>      -0.43791694       0.06062236       0.35535660 </v>
   <v>      -0.47474832       0.08882829       0.38129286 </v>
   <v>      -0.47870240       0.48562540      -0.43195162 </v>
   <v>      -0.36269331       0.43731540      -0.45313256 </v>
   <v>      -0.45144941      -0.48062824       0.34551917 </v>
   <v>      -0.37695650       0.30981957      -0.49126302 </v>
   <v>      -0.37911359       0.39252541      -0.49183876 </v>
   <v>      -0.46251924       0.47617875      -0.49360328 </v>
   <v>      -0.48505340       0.12164291      -0.42337278 </v>
   <v>      -0.45631924       0.48810949       0.37896612 </v>
   <v>      -0.36202281       0.19747142       0.46858308 </v>
   <v>      -0.48462410       0.45144508       0.35534204 </v>
   <v>      -0.47070297       0.47022136      -0.38681115 </v>
   <v>      -0.43393405       0.11528823      -0.49401899 </v>
   <v>      -0.37884922       0.22509989      -0.49187578 </v>
   <v>      -0.37637775       0.49873203      -0.42339352 </v>
   <v>      -0.45041586       0.14292661      -0.45393255 </v>
   <v>      -0.38972286       0.46408138      -0.45393171 </v>
   <v>      -0.41910850       0.28866600      -0.49140142 </v>
   <v>      -0.37517872       0.12322307       0.43625454 </v>
   <v>      -0.42357543       0.37566138       0.46861588 </v>
   <v>      -0.41956875       0.48824964       0.38126855 </v>
   <v>      -0.38916709       0.14368139       0.46728128 </v>
   <v>      -0.48466166       0.38877130       0.43624443 </v>
   <v>      -0.43686927       0.34126730       0.43758590 </v>
   <v>      -0.42361813       0.19674443      -0.45314817 </v>
   <v>      -0.43385131       0.44755715      -0.49401524 </v>
   <v>      -0.43710741       0.21721226      -0.42123160 </v>
   <v>      -0.45022113       0.40278103       0.46728817 </v>
  </varray>
 </structure>
 <varray name="primitive_index" >
  <v type="int" >        1 </v>
  <v type="int" >       73 </v>
  <v type="int" >        8 </v>
  <v type="int" >        2 </v>
  <v type="int" >       79 </v>
  <v type="int" >        3 </v>
  <v type="int" >       22 </v>
  <v type="int" >        4 </v>
  <v type="int" >        9 </v>
  <v type="int" >       78 </v>
  <v type="int" >        7 </v>
  <v type="int" >       74 </v>
  <v type="int" >       75 </v>
  <v type="int" >        5 </v>
  <v type="int" >       10 </v>
  <v type="int" >       80 </v>
  <v type="int" >       89 </v>
  <v type="int" >        6 </v>
  <v type="int" >       11 </v>
  <v type="int" >       71 </v>
  <v type="int" >       77 </v>
  <v type="int" >       61 </v>
  <v type="int" >       15 </v>
  <v type="int" >       90 </v>
  <v type="int" >       76 </v>
  <v type="int" >       70 </v>
  <v type="int" >      126 </v>
  <v type="int" >       72 </v>
  <v type="int" >      125 </v>
  <v type="int" >      115 </v>
  <v type="int" >       12 </v>
  <v type="int" >       88 </v>
  <v type="int" >       14 </v>
  <v type="int" >      124 </v>
  <v type="int" >       13 </v>
  <v type="int" >       44 </v>
  <v type="int" >       16 </v>
  <v type="int" >       17 </v>
  <v type="int" >       94 </v>
  <v type="int" >       81 </v>
  <v type="int" >       45 </v>
  <v type="int" >       23 </v>
  <v type="int" >       92 </v>
  <v type="int" >       24 </v>
  <v type="int" >       43 </v>
  <v type="int" >       91 </v>
  <v type="int" >       21 </v>
  <v type="int" >       18 </v>
  <v type="int" >       85 </v>
  <v type="int" >       87 </v>
  <v type="int" >       28 </v>
  <v type="int" >       46 </v>
  <v type="int" >       83 </v>
  <v type="int" >       20 </v>
  <v type="int" >       25 </v>
  <v type="int" >       19 </v>
  <v type="int" >       42 </v>
  <v type="int" >       82 </v>
  <v type="int" >       95 </v>
  <v type="int" >       41 </v>
  <v type="int" >       93 </v>
  <v type="int" >       27 </v>
  <v type="int" >       86 </v>
  <v type="int" >       26 </v>
  <v type="int" >       53 </v>
  <v type="int" >      116 </v>
  <v type="int" >      108 </v>
  <v type="int" >      110 </v>
  <v type="int" >       84 </v>
  <v type="int" >       64 </v>
  <v type="int" >      112 </v>
  <v type="int" >       29 </v>
  <v type="int" >       56 </v>
  <v type="int" >       54 </v>
  <v type="int" >      105 </v>
  <v type="int" >       57 </v>
  <v type="int" >      120 </v>
  <v type="int" >      104 </v>
  <v type="int" >       34 </v>
  <v type="int" >       60 </v>
  <v type="int" >       30 </v>
  <v type="int" >       68 </v>
  <v type="int" >      119 </v>
  <v type="int" >      109 </v>
  <v type="int" >       63 </v>
  <v type="int" >      114 </v>
  <v type="int" >       58 </v>
  <v type="int" >       55 </v>
  <v type="int" >      113 </v>
  <v type="int" >       65 </v>
  <v type="int" >       62 </v>
  <v type="int" >       96 </v>
  <v type="int" >       33 </v>
  <v type="int" >      107 </v>
  <v type="int" >      103 </v>
  <v type="int" >       31 </v>
  <v type="int" >       67 </v>
  <v type="int" >      118 </v>
  <v type="int" >      117 </v>
  <v type="int" >       59 </v>
  <v type="int" >       48 </v>
  <v type="int" >      123 </v>
  <v type="int" >       32 </v>
  <v type="int" >       47 </v>
  <v type="int" >       66 </v>
  <v type="int" >      101 </v>
  <v type="int" >       69 </v>
  <v type="int" >       36 </v>
  <v type="int" >      122 </v>
  <v type="int" >      111 </v>
  <v type="int" >       38 </v>
  <v type="int" >       35 </v>
  <v type="int" >       97 </v>
  <v type="int" >       39 </v>
  <v type="int" >       49 </v>
  <v type="int" >      106 </v>
  <v type="int" >      102 </v>
  <v type="int" >       52 </v>
  <v type="int" >      121 </v>
  <v type="int" >       37 </v>
  <v type="int" >       99 </v>
  <v type="int" >       98 </v>
  <v type="int" >       40 </v>
  <v type="int" >       50 </v>
  <v type="int" >      100 </v>
  <v type="int" >       51 </v>
 </varray>
 <kpoints>
  <generation param="listgenerated">
   <i name="divisions" type="int">      20 </i>
   <v>       0.00000000       0.00000000       0.00000000 </v>
   <v>       0.50000000       0.00000000       0.00000000 </v>
   <v>       0.33333333       0.33333333       0.00000000 </v>
   <v>       0.00000000       0.00000000       0.00000000 </v>
  </generation>
  <varray name="kpointlist" >
   <v>       0.00000000       0.00000000       0.00000000 </v>
   <v>       0.02631579       0.00000000       0.00000000 </v>
   <v>       0.05263158       0.00000000       0.00000000 </v>
   <v>       0.07894737       0.00000000       0.00000000 </v>
   <v>       0.10526316       0.00000000       0.00000000 </v>
   <v>       0.13157895       0.00000000       0.00000000 </v>
   <v>       0.15789474       0.00000000       0.00000000 </v>
   <v>       0.18421053       0.00000000       0.00000000 </v>
   <v>       0.21052632       0.00000000       0.00000000 </v>
   <v>       0.23684211       0.00000000       0.00000000 </v>
   <v>       0.26315789       0.00000000       0.00000000 </v>
   <v>       0.28947368       0.00000000       0.00000000 </v>
   <v>       0.31578947       0.00000000       0.00000000 </v>
   <v>       0.34210526       0.00000000       0.00000000 </v>
   <v>       0.36842105       0.00000000       0.00000000 </v>
   <v>       0.39473684       0.00000000       0.00000000 </v>
   <v>       0.42105263       0.00000000       0.00000000 </v>
   <v>       0.44736842       0.00000000       0.00000000 </v>
   <v>       0.47368421       0.00000000       0.00000000 </v>
   <v>       0.50000000       0.00000000       0.00000000 </v>
   <v>       0.50000000       0.00000000       0.00000000 </v>
   <v>       0.49122807       0.01754386       0.00000000 </v>
   <v>       0.48245614       0.03508772       0.00000000 </v>
   <v>       0.47368421       0.05263158       0.00000000 </v>
   <v>       0.46491228       0.07017544       0.00000000 </v>
   <v>       0.45614035       0.08771930       0.00000000 </v>
   <v>       0.44736842       0.10526316       0.00000000 </v>
   <v>       0.43859649       0.12280702       0.00000000 </v>
   <v>       0.42982456       0.14035088       0.00000000 </v>
   <v>       0.42105263       0.15789474       0.00000000 </v>
   <v>       0.41228070       0.17543860       0.00000000 </v>
   <v>       0.40350877       0.19298246       0.00000000 </v>
   <v>       0.39473684       0.21052632       0.00000000 </v>
   <v>       0.38596491       0.22807018       0.00000000 </v>
   <v>       0.37719298       0.24561404       0.00000000 </v>
   <v>       0.36842105       0.26315789       0.00000000 </v>
   <v>       0.35964912       0.28070175       0.00000000 </v>
   <v>       0.35087719       0.29824561       0.00000000 </v>
   <v>       0.34210526       0.31578947       0.00000000 </v>
   <v>       0.33333333       0.33333333       0.00000000 </v>
   <v>       0.33333333       0.33333333       0.00000000 </v>
   <v>       0.31578947       0.31578947       0.00000000 </v>
   <v>       0.29824561       0.29824561       0.00000000 </v>
   <v>       0.28070175       0.28070175       0.00000000 </v>
   <v>       0.26315789       0.26315789       0.00000000 </v>
   <v>       0.24561404       0.24561404       0.00000000 </v>
   <v>       0.22807018       0.22807018       0.00000000 </v>
   <v>       0.21052632       0.21052632       0.00000000 </v>
   <v>       0.19298246       0.19298246       0.00000000 </v>
   <v>       0.17543860       0.17543860       0.00000000 </v>
   <v>       0.15789474       0.15789474       0.00000000 </v>
   <v>       0.14035088       0.14035088       0.00000000 </v>
   <v>       0.12280702       0.12280702       0.00000000 </v>
   <v>       0.10526316       0.10526316       0.00000000 </v>
   <v>       0.08771930       0.08771930       0.00000000 </v>
   <v>       0.07017544       0.07017544       0.00000000 </v>
   <v>       0.05263158       0.05263158       0.00000000 </v>
   <v>       0.03508772       0.03508772       0.00000000 </v>
   <v>       0.01754386       0.01754386       0.00000000 </v>
   <v>       0.00000000       0.00000000       0.00000000 </v>
  </varray>
  <varray name="weights" >
   <v>       0.01666667 </v>
   <v>       0.01666667 </v>
   <v>       0.01666667 </v>
   <v>       0.01666667 </v>
   <v>       0.01666667 </v>
   <v>       0.01666667 </v>
   <v>       0.01666667 </v>
   <v>       0.01666667 </v>
   <v>       0.01666667 </v>
   <v>       0.01666667 </v>
   <v>       0.01666667 </v>
   <v>       0.01666667 </v>
   <v>       0.01666667 </v>
   <v>       0.01666667 </v>
   <v>       0.01666667 </v>
   <v>       0.01666667 </v>
   <v>       0.01666667 </v>
   <v>       0.01666667 </v>
   <v>       0.01666667 </v>
   <v>       0.01666667 </v>
   <v>       0.01666667 </v>
   <v>       0.01666667 </v>
   <v>       0.01666667 </v>
   <v>       0.01666667 </v>
   <v>       0.01666667 </v>
   <v>       0.01666667 </v>
   <v>       0.01666667 </v>
   <v>       0.01666667 </v>
   <v>       0.01666667 </v>
   <v>       0.01666667 </v>
   <v>       0.01666667 </v>
   <v>       0.01666667 </v>
   <v>       0.01666667 </v>
   <v>       0.01666667 </v>
   <v>       0.01666667 </v>
   <v>       0.01666667 </v>
   <v>       0.01666667 </v>
   <v>       0.01666667 </v>
   <v>       0.01666667 </v>
   <v>       0.01666667 </v>
   <v>       0.01666667 </v>
   <v>       0.01666667 </v>
   <v>       0.01666667 </v>
   <v>       0.01666667 </v>
   <v>       0.01666667 </v>
   <v>       0.01666667 </v>
   <v>       0.01666667 </v>
   <v>       0.01666667 </v>
   <v>       0.01666667 </v>
   <v>       0.01666667 </v>
   <v>       0.01666667 </v>
   <v>       0.01666667 </v>
   <v>       0.01666667 </v>
   <v>       0.01666667 </v>
   <v>       0.01666667 </v>
   <v>       0.01666667 </v>
   <v>       0.01666667 </v>
   <v>       0.01666667 </v>
   <v>       0.01666667 </v>
   <v>       0.01666667 </v>
  </varray>
 </kpoints>
 <parameters>
  <separator name="general" >
   <i type="string" name="SYSTEM">Simulation for cell shape cell volume r</i>
   <i type="logical" name="LCOMPAT"> F  </i>
  </separator>
  <separator name="electronic" >
   <i type="string" name="PREC">high</i>
   <i name="ENMAX">    500.00000000</i>
   <i name="ENAUG">    644.87300000</i>
   <i name="EDIFF">      0.00001000</i>
   <i type="int" name="IALGO">    38</i>
   <i type="int" name="IWAVPR">    10</i>
   <i type="int" name="NBANDS">   240</i>
   <i name="NELECT">    342.00000000</i>
   <i type="int" name="TURBO">     0</i>
   <i type="int" name="IRESTART">     0</i>
   <i type="int" name="NREBOOT">     0</i>
   <i type="int" name="NMIN">     0</i>
   <i name="EREF">      0.00000000</i>
   <separator name="electronic smearing" >
    <i type="int" name="ISMEAR">     0</i>
    <i name="SIGMA">      0.01000000</i>
    <i name="KSPACING">      0.50000000</i>
    <i type="logical" name="KGAMMA"> T  </i>
   </separator>
   <separator name="electronic projectors" >
    <i type="logical" name="LREAL"> T  </i>
    <v name="ROPT">     -0.00040000     -0.00040000</v>
    <i type="int" name="LMAXPAW">  -100</i>
    <i type="int" name="LMAXMIX">     2</i>
    <i type="logical" name="NLSPLINE"> F  </i>
   </separator>
   <separator name="electronic startup" >
    <i type="int" name="ISTART">     1</i>
    <i type="int" name="ICHARG">    11</i>
    <i type="int" name="INIWAV">     1</i>
   </separator>
   <separator name="electronic spin" >
    <i type="int" name="ISPIN">     1</i>
    <i type="logical" name="LNONCOLLINEAR"> F  </i>
    <v name="MAGMOM">      1.00000000      1.00000000      1.00000000      1.00000000      1.00000000      1.00000000      1.00000000      1.00000000      1.00000000      1.00000000      1.00000000      1.00000000      1.00000000      1.00000000      1.00000000      1.00000000      1.00000000      1.00000000      1.00000000      1.00000000
      1.00000000      1.00000000      1.00000000      1.00000000      1.00000000      1.00000000      1.00000000      1.00000000      1.00000000      1.00000000      1.00000000      1.00000000      1.00000000      1.00000000      1.00000000      1.00000000      1.00000000      1.00000000      1.00000000      1.00000000
      1.00000000      1.00000000      1.00000000      1.00000000      1.00000000      1.00000000      1.00000000      1.00000000      1.00000000      1.00000000      1.00000000      1.00000000      1.00000000      1.00000000      1.00000000      1.00000000      1.00000000      1.00000000      1.00000000      1.00000000
      1.00000000      1.00000000      1.00000000      1.00000000      1.00000000      1.00000000      1.00000000      1.00000000      1.00000000      1.00000000      1.00000000      1.00000000      1.00000000      1.00000000      1.00000000      1.00000000      1.00000000      1.00000000      1.00000000      1.00000000
      1.00000000      1.00000000      1.00000000      1.00000000      1.00000000      1.00000000      1.00000000      1.00000000      1.00000000      1.00000000      1.00000000      1.00000000      1.00000000      1.00000000      1.00000000      1.00000000      1.00000000      1.00000000      1.00000000      1.00000000
      1.00000000      1.00000000      1.00000000      1.00000000      1.00000000      1.00000000      1.00000000      1.00000000      1.00000000      1.00000000      1.00000000      1.00000000      1.00000000      1.00000000      1.00000000      1.00000000      1.00000000      1.00000000      1.00000000      1.00000000
      1.00000000      1.00000000      1.00000000      1.00000000      1.00000000      1.00000000</v>
    <i name="NUPDOWN">     -1.00000000</i>
    <i type="logical" name="LSORBIT"> F  </i>
    <v name="SAXIS">      0.00000000      0.00000000      1.00000000</v>
    <i type="logical" name="LSPIRAL"> F  </i>
    <v name="QSPIRAL">      0.00000000      0.00000000      0.00000000</v>
    <i type="logical" name="LZEROZ"> F  </i>
   </separator>
   <separator name="electronic exchange-correlation" >
    <i type="logical" name="LASPH"> F  </i>
    <i type="logical" name="LMETAGGA"> F  </i>
   </separator>
   <separator name="electronic convergence" >
    <i type="int" name="NELM">   200</i>
    <i type="int" name="NELMDL">     0</i>
    <i type="int" name="NELMIN">     2</i>
    <i name="ENINI">    500.00000000</i>
    <separator name="electronic convergence detail" >
     <i type="logical" name="LDIAG"> T  </i>
     <i type="logical" name="LSUBROT"> F  </i>
     <i name="WEIMIN">      0.00000000</i>
     <i name="EBREAK">      0.00000001</i>
     <i name="DEPER">      0.30000000</i>
     <i type="int" name="NRMM">     4</i>
     <i name="TIME">      0.40000000</i>
    </separator>
   </separator>
   <separator name="electronic mixer" >
    <i name="AMIX">      0.40000000</i>
    <i name="BMIX">      1.00000000</i>
    <i name="AMIN">      0.10000000</i>
    <i name="AMIX_MAG">      1.60000000</i>
    <i name="BMIX_MAG">      1.00000000</i>
    <separator name="electronic mixer details" >
     <i type="int" name="IMIX">     4</i>
     <i type="logical" name="MIXFIRST"> F  </i>
     <i type="int" name="MAXMIX">   -45</i>
     <i name="WC">    100.00000000</i>
     <i type="int" name="INIMIX">     1</i>
     <i type="int" name="MIXPRE">     1</i>
     <i type="int" name="MREMOVE">     5</i>
    </separator>
   </separator>
   <separator name="electronic dipolcorrection" >
    <i type="logical" name="LDIPOL"> F  </i>
    <i type="logical" name="LMONO"> F  </i>
    <i type="int" name="IDIPOL">     0</i>
    <i name="EPSILON">      1.00000000</i>
    <v name="DIPOL">   -100.00000000   -100.00000000   -100.00000000</v>
    <i name="EFIELD">      0.00000000</i>
   </separator>
  </separator>
  <separator name="grids" >
   <i type="int" name="NGX">   224</i>
   <i type="int" name="NGY">   224</i>
   <i type="int" name="NGZ">   150</i>
   <i type="int" name="NGXF">   336</i>
   <i type="int" name="NGYF">   336</i>
   <i type="int" name="NGZF">   224</i>
   <i type="logical" name="ADDGRID"> F  </i>
  </separator>
  <separator name="ionic" >
   <i type="int" name="NSW">     0</i>
   <i type="int" name="IBRION">    -1</i>
   <i type="int" name="MDALGO">     0</i>
   <i type="int" name="ISIF">     2</i>
   <i name="PSTRESS">      0.00000000</i>
   <i name="EDIFFG">     -0.01000000</i>
   <i type="int" name="NFREE">     0</i>
   <i name="POTIM">      0.30000000</i>
   <i name="SMASS">     -3.00000000</i>
   <i name="SCALEE">      1.00000000</i>
  </separator>
  <separator name="ionic md" >
   <i name="TEBEG">      0.00010000</i>
   <i name="TEEND">      0.00010000</i>
   <i type="int" name="NBLOCK">     1</i>
   <i type="int" name="KBLOCK">     1</i>
   <i type="int" name="NPACO">   256</i>
   <i name="APACO">     16.00000000</i>
  </separator>
  <separator name="symmetry" >
   <i type="int" name="ISYM">     2</i>
   <i name="SYMPREC">      0.00001000</i>
  </separator>
  <separator name="dos" >
   <i type="int" name="LORBIT">     0</i>
   <v name="RWIGS">     -1.00000000     -1.00000000</v>
   <i type="int" name="NEDOS">   301</i>
   <i name="EMIN">     10.00000000</i>
   <i name="EMAX">    -10.00000000</i>
   <i name="EFERMI">      0.00000000</i>
  </separator>
  <separator name="writing" >
   <i type="int" name="NWRITE">     0</i>
   <i type="logical" name="LWAVE"> F  </i>
   <i type="logical" name="LDOWNSAMPLE"> F  </i>
   <i type="logical" name="LCHARG"> F  </i>
   <i type="logical" name="LPARD"> F  </i>
   <i type="logical" name="LVTOT"> F  </i>
   <i type="logical" name="LVHAR"> F  </i>
   <i type="logical" name="LELF"> F  </i>
   <i type="logical" name="LOPTICS"> F  </i>
   <v name="STM">      0.00000000      0.00000000      0.00000000      0.00000000      0.00000000      0.00000000      0.00000000</v>
  </separator>
  <separator name="performance" >
   <i type="int" name="NPAR">    16</i>
   <i type="int" name="NSIM">     4</i>
   <i type="int" name="NBLK">    -1</i>
   <i type="logical" name="LPLANE"> T  </i>
   <i type="logical" name="LSCALAPACK"> T  </i>
   <i type="logical" name="LSCAAWARE"> F  </i>
   <i type="logical" name="LSCALU"> F  </i>
   <i type="logical" name="LASYNC"> F  </i>
   <i type="logical" name="LORBITALREAL"> F  </i>
  </separator>
  <separator name="miscellaneous" >
   <i type="int" name="IDIOT">     3</i>
   <i type="int" name="ISPECIAL">     0</i>
   <i type="logical" name="LMUSIC"> F  </i>
   <v name="POMASS">     12.01100000      1.00000000</v>
   <v name="DARWINR">      0.00000000      0.00000000</v>
   <v name="DARWINV">      1.00000000      1.00000000</v>
   <i type="logical" name="LCORR"> T  </i>
  </separator>
  <i type="logical" name="GGA_COMPAT"> T  </i>
  <i type="logical" name="LBERRY"> F  </i>
  <i type="int" name="ICORELEVEL">     0</i>
  <i type="logical" name="LDAU"> F  </i>
  <i type="int" name="I_CONSTRAINED_M">     0</i>
  <separator name="electronic exchange-correlation" >
   <i type="string" name="GGA">PE</i>
   <i type="int" name="VOSKOWN">     0</i>
   <i type="logical" name="LHFCALC"> F  </i>
   <i type="string" name="PRECFOCK"></i>
   <i type="logical" name="LSYMGRAD"> F  </i>
   <i type="logical" name="LHFONE"> F  </i>
   <i type="logical" name="LRHFCALC"> F  </i>
   <i type="logical" name="LTHOMAS"> F  </i>
   <i type="logical" name="LMODELHF"> F  </i>
   <i name="ENCUT4O">     -1.00000000</i>
   <i type="int" name="EXXOEP">     0</i>
   <i type="int" name="FOURORBIT">     0</i>
   <i name="AEXX">      0.00000000</i>
   <i name="HFALPHA">      0.00000000</i>
   <i name="MCALPHA">      0.00000000</i>
   <i name="ALDAX">      1.00000000</i>
   <i name="AGGAX">      1.00000000</i>
   <i name="ALDAC">      1.00000000</i>
   <i name="AGGAC">      1.00000000</i>
   <i type="int" name="NKREDX">     1</i>
   <i type="int" name="NKREDY">     1</i>
   <i type="int" name="NKREDZ">     1</i>
   <i type="logical" name="SHIFTRED"> F  </i>
   <i type="logical" name="ODDONLY"> F  </i>
   <i type="logical" name="EVENONLY"> F  </i>
   <i type="int" name="LMAXFOCK">     0</i>
   <i type="int" name="NMAXFOCKAE">     0</i>
   <i type="logical" name="LFOCKAEDFT"> F  </i>
   <i name="HFSCREEN">      0.00000000</i>
   <i name="HFSCREENC">      0.00000000</i>
   <i type="int" name="NBANDSGWLOW">     0</i>
  </separator>
  <separator name="vdW DFT" >
   <i type="logical" name="LUSE_VDW"> F  </i>
   <i name="Zab_VDW">     -0.84910000</i>
   <i name="PARAM1">      0.12340000</i>
   <i name="PARAM2">      1.00000000</i>
   <i name="PARAM3">      0.00000000</i>
  </separator>
  <separator name="model GW" >
   <i type="int" name="MODEL_GW">     0</i>
   <i name="MODEL_EPS0">     73.72070952</i>
   <i name="MODEL_ALPHA">      1.00000000</i>
  </separator>
  <separator name="linear response parameters" >
   <i type="logical" name="LEPSILON"> F  </i>
   <i type="logical" name="LRPA"> F  </i>
   <i type="logical" name="LNABLA"> F  </i>
   <i type="logical" name="LVEL"> F  </i>
   <i type="int" name="KINTER">     0</i>
   <i name="CSHIFT">      0.10000000</i>
   <i name="OMEGAMAX">     -1.00000000</i>
   <i name="DEG_THRESHOLD">      0.00200000</i>
   <i name="RTIME">     -0.10000000</i>
   <i name="WPLASMAI">      0.00000000</i>
   <v name="DFIELD">      0.00000000      0.00000000      0.00000000</v>
   <v name="WPLASMA">      0.00000000      0.00000000      0.00000000      0.00000000      0.00000000      0.00000000      0.00000000      0.00000000      0.00000000</v>
  </separator>
  <separator name="orbital magnetization" >
   <i type="logical" name="NUCIND"> F  </i>
   <v name="MAGPOS">      0.00000000      0.00000000      0.00000000</v>
   <i type="logical" name="LNICSALL"> T  </i>
   <i type="logical" name="ORBITALMAG"> F  </i>
   <i type="logical" name="LMAGBLOCH"> F  </i>
   <i type="logical" name="LCHIMAG"> F  </i>
   <i type="logical" name="LGAUGE"> T  </i>
   <i type="int" name="MAGATOM">     0</i>
   <v name="MAGDIPOL">      0.00000000      0.00000000      0.00000000</v>
   <v name="AVECCONST">      0.00000000      0.00000000      0.00000000</v>
  </separator>
  <separator name="response functions" >
   <i type="logical" name="LADDER"> F  </i>
   <i type="logical" name="LRPAFORCE"> F  </i>
   <i type="logical" name="LFXC"> F  </i>
   <i type="logical" name="LHARTREE"> T  </i>
   <i type="int" name="IBSE">     0</i>
   <v type="int" name="KPOINT">    -1     0     0     0</v>
   <i type="logical" name="LTCTE"> F  </i>
   <i type="logical" name="LTETE"> F  </i>
   <i type="logical" name="LTRIPLET"> F  </i>
   <i type="logical" name="LFXCEPS"> F  </i>
   <i type="logical" name="LFXHEG"> F  </i>
   <i type="int" name="NATURALO">     2</i>
   <i type="logical" name="L2ORDER"> F  </i>
   <i type="logical" name="LMP2LT"> F  </i>
   <i type="logical" name="LUSEW"> F  </i>
   <i name="ENCUTGW">     -2.00000000</i>
   <i name="ENCUTGWSOFT">     -2.00000000</i>
   <i name="ENCUTLF">     -1.00000000</i>
   <i type="int" name="LMAXMP2">    -1</i>
   <i name="SCISSOR">      0.00000000</i>
   <i type="int" name="NOMEGA">     0</i>
   <i type="int" name="NOMEGAR">     0</i>
   <i type="int" name="NBANDSGW">    -1</i>
   <i type="int" name="NBANDSO">    -1</i>
   <i type="int" name="NBANDSV">    -1</i>
   <i type="int" name="NELM">   200</i>
   <i type="int" name="NELMHF">     1</i>
   <i type="int" name="DIM">     3</i>
   <i type="int" name="ANTIRES">     0</i>
   <i name="OMEGAMAX">    -30.00000000</i>
   <i name="OMEGAMIN">    -30.00000000</i>
   <i name="OMEGATL">   -200.00000000</i>
   <i type="int" name="OMEGAGRID">   140</i>
   <i name="CSHIFT">     -0.10000000</i>
   <i type="logical" name="SELFENERGY"> F  </i>
   <i type="logical" name="LSPECTRAL"> F  </i>
   <i type="logical" name="LSPECTRALGW"> F  </i>
   <i type="logical" name="LSINGLES"> F  </i>
   <i type="logical" name="LFERMIGW"> F  </i>
   <i type="logical" name="ODDONLYGW"> F  </i>
   <i type="logical" name="EVENONLYGW"> F  </i>
   <i type="int" name="NKREDLFX">     1</i>
   <i type="int" name="NKREDLFY">     1</i>
   <i type="int" name="NKREDLFZ">     1</i>
   <i type="int" name="MAXMEM">  2800</i>
   <i type="int" name="TELESCOPE">     0</i>
   <i type="int" name="TAUPAR">     1</i>
   <i type="int" name="OMEGAPAR">    -1</i>
   <i name="LAMBDA">      1.00000000</i>
  </separator>
  <separator name="External order field" >
   <i name="OFIELD_KAPPA">      0.00000000</i>
   <v name="OFIELD_K">      0.00000000      0.00000000      0.00000000</v>
   <i name="OFIELD_Q6_NEAR">      0.00000000</i>
   <i name="OFIELD_Q6_FAR">      0.00000000</i>
   <i name="OFIELD_A">      0.00000000</i>
  </separator>
  <separator name="solvation model" >
   <i type="logical" name="LSOL"> F  </i>
  </separator>
 </parameters>
 <atominfo>
  <atoms>     126 </atoms>
  <types>       2 </types>
  <array name="atoms" >
   <dimension dim="1">ion</dimension>
   <field type="string">element</field>
   <field type="int">atomtype</field>
   <set>
    <rc><c>C </c><c>   1</c></rc>
    <rc><c>C </c><c>   1</c></rc>
    <rc><c>C </c><c>   1</c></rc>
    <rc><c>C </c><c>   1</c></rc>
    <rc><c>C </c><c>   1</c></rc>
    <rc><c>C </c><c>   1</c></rc>
    <rc><c>C </c><c>   1</c></rc>
    <rc><c>C </c><c>   1</c></rc>
    <rc><c>C </c><c>   1</c></rc>
    <rc><c>C </c><c>   1</c></rc>
    <rc><c>C </c><c>   1</c></rc>
    <rc><c>C </c><c>   1</c></rc>
    <rc><c>C </c><c>   1</c></rc>
    <rc><c>C </c><c>   1</c></rc>
    <rc><c>C </c><c>   1</c></rc>
    <rc><c>C </c><c>   1</c></rc>
    <rc><c>C </c><c>   1</c></rc>
    <rc><c>C </c><c>   1</c></rc>
    <rc><c>C </c><c>   1</c></rc>
    <rc><c>C </c><c>   1</c></rc>
    <rc><c>C </c><c>   1</c></rc>
    <rc><c>C </c><c>   1</c></rc>
    <rc><c>C </c><c>   1</c></rc>
    <rc><c>C </c><c>   1</c></rc>
    <rc><c>C </c><c>   1</c></rc>
    <rc><c>C </c><c>   1</c></rc>
    <rc><c>C </c><c>   1</c></rc>
    <rc><c>C </c><c>   1</c></rc>
    <rc><c>C </c><c>   1</c></rc>
    <rc><c>C </c><c>   1</c></rc>
    <rc><c>C </c><c>   1</c></rc>
    <rc><c>C </c><c>   1</c></rc>
    <rc><c>C </c><c>   1</c></rc>
    <rc><c>C </c><c>   1</c></rc>
    <rc><c>C </c><c>   1</c></rc>
    <rc><c>C </c><c>   1</c></rc>
    <rc><c>C </c><c>   1</c></rc>
    <rc><c>C </c><c>   1</c></rc>
    <rc><c>C </c><c>   1</c></rc>
    <rc><c>C </c><c>   1</c></rc>
    <rc><c>C </c><c>   1</c></rc>
    <rc><c>C </c><c>   1</c></rc>
    <rc><c>C </c><c>   1</c></rc>
    <rc><c>C </c><c>   1</c></rc>
    <rc><c>C </c><c>   1</c></rc>
    <rc><c>C </c><c>   1</c></rc>
    <rc><c>C </c><c>   1</c></rc>
    <rc><c>C </c><c>   1</c></rc>
    <rc><c>C </c><c>   1</c></rc>
    <rc><c>C </c><c>   1</c></rc>
    <rc><c>C </c><c>   1</c></rc>
    <rc><c>C </c><c>   1</c></rc>
    <rc><c>C </c><c>   1</c></rc>
    <rc><c>C </c><c>   1</c></rc>
    <rc><c>C </c><c>   1</c></rc>
    <rc><c>C </c><c>   1</c></rc>
    <rc><c>C </c><c>   1</c></rc>
    <rc><c>C </c><c>   1</c></rc>
    <rc><c>C </c><c>   1</c></rc>
    <rc><c>C </c><c>   1</c></rc>
    <rc><c>C </c><c>   1</c></rc>
    <rc><c>C </c><c>   1</c></rc>
    <rc><c>C </c><c>   1</c></rc>
    <rc><c>C </c><c>   1</c></rc>
    <rc><c>C </c><c>   1</c></rc>
    <rc><c>C </c><c>   1</c></rc>
    <rc><c>C </c><c>   1</c></rc>
    <rc><c>C </c><c>   1</c></rc>
    <rc><c>C </c><c>   1</c></rc>
    <rc><c>C </c><c>   1</c></rc>
    <rc><c>C </c><c>   1</c></rc>
    <rc><c>C </c><c>   1</c></rc>
    <rc><c>H </c><c>   2</c></rc>
    <rc><c>H </c><c>   2</c></rc>
    <rc><c>H </c><c>   2</c></rc>
    <rc><c>H </c><c>   2</c></rc>
    <rc><c>H </c><c>   2</c></rc>
    <rc><c>H </c><c>   2</c></rc>
    <rc><c>H </c><c>   2</c></rc>
    <rc><c>H </c><c>   2</c></rc>
    <rc><c>H </c><c>   2</c></rc>
    <rc><c>H </c><c>   2</c></rc>
    <rc><c>H </c><c>   2</c></rc>
    <rc><c>H </c><c>   2</c></rc>
    <rc><c>H </c><c>   2</c></rc>
    <rc><c>H </c><c>   2</c></rc>
    <rc><c>H </c><c>   2</c></rc>
    <rc><c>H </c><c>   2</c></rc>
    <rc><c>H </c><c>   2</c></rc>
    <rc><c>H </c><c>   2</c></rc>
    <rc><c>H </c><c>   2</c></rc>
    <rc><c>H </c><c>   2</c></rc>
    <rc><c>H </c><c>   2</c></rc>
    <rc><c>H </c><c>   2</c></rc>
    <rc><c>H </c><c>   2</c></rc>
    <rc><c>H </c><c>   2</c></rc>
    <rc><c>H </c><c>   2</c></rc>
    <rc><c>H </c><c>   2</c></rc>
    <rc><c>H </c><c>   2</c></rc>
    <rc><c>H </c><c>   2</c></rc>
    <rc><c>H </c><c>   2</c></rc>
    <rc><c>H </c><c>   2</c></rc>
    <rc><c>H </c><c>   2</c></rc>
    <rc><c>H </c><c>   2</c></rc>
    <rc><c>H </c><c>   2</c></rc>
    <rc><c>H </c><c>   2</c></rc>
    <rc><c>H </c><c>   2</c></rc>
    <rc><c>H </c><c>   2</c></rc>
    <rc><c>H </c><c>   2</c></rc>
    <rc><c>H </c><c>   2</c></rc>
    <rc><c>H </c><c>   2</c></rc>
    <rc><c>H </c><c>   2</c></rc>
    <rc><c>H </c><c>   2</c></rc>
    <rc><c>H </c><c>   2</c></rc>
    <rc><c>H </c><c>   2</c></rc>
    <rc><c>H </c><c>   2</c></rc>
    <rc><c>H </c><c>   2</c></rc>
    <rc><c>H </c><c>   2</c></rc>
    <rc><c>H </c><c>   2</c></rc>
    <rc><c>H </c><c>   2</c></rc>
    <rc><c>H </c><c>   2</c></rc>
    <rc><c>H </c><c>   2</c></rc>
    <rc><c>H </c><c>   2</c></rc>
    <rc><c>H </c><c>   2</c></rc>
    <rc><c>H </c><c>   2</c></rc>
    <rc><c>H </c><c>   2</c></rc>
   </set>
  </array>
  <array name="atomtypes" >
   <dimension dim="1">type</dimension>
   <field type="int">atomspertype</field>
   <field type="string">element</field>
   <field>mass</field>
   <field>valence</field>
   <field type="string">pseudopotential</field>
   <set>
    <rc><c>  72</c><c>C </c><c>     12.01100000</c><c>      4.00000000</c><c>  PAW_PBE C 08Apr2002                   </c></rc>
    <rc><c>  54</c><c>H </c><c>      1.00000000</c><c>      1.00000000</c><c>  PAW_PBE H 15Jun2001                   </c></rc>
   </set>
  </array>
 </atominfo>
 <structure name="initialpos" >
  <crystal>
   <varray name="basis" >
    <v>      29.90352011      -0.00270176       0.00000000 </v>
    <v>     -14.95400014      25.88684708       0.00000000 </v>
    <v>       0.00000000       0.00000000      20.00000000 </v>
   </varray>
   <i name="volume">  15481.34899884 </i>
   <varray name="rec_basis" >
    <v>       0.03344262       0.01931873       0.00000000 </v>
    <v>       0.00000349       0.03863167       0.00000000 </v>
    <v>       0.00000000       0.00000000       0.05000000 </v>
   </varray>
  </crystal>
  <varray name="positions" >
   <v>       0.14962227       0.60352429       0.47538181 </v>
   <v>       0.12203193       0.55933942       0.51540812 </v>
   <v>       0.15046292       0.54286108       0.55381782 </v>
   <v>       0.06472454       0.53068186       0.51508655 </v>
   <v>       0.03507782       0.51925196       0.57421356 </v>
   <v>       0.05900125       0.53652270       0.64256129 </v>
   <v>       0.03909242       0.51462633       0.45341797 </v>
   <v>       0.20342198       0.63051082       0.47437809 </v>
   <v>       0.20423782       0.56946639       0.55228674 </v>
   <v>       0.28898282       0.64264495       0.51209404 </v>
   <v>       0.31654083       0.69684843       0.51207356 </v>
   <v>       0.37073219       0.72456938       0.51213270 </v>
   <v>       0.39736691       0.69702635       0.51206585 </v>
   <v>       0.37087169       0.64282452       0.51207377 </v>
   <v>       0.31668382       0.61616556       0.51201527 </v>
   <v>       0.39926275       0.78174951       0.51287830 </v>
   <v>       0.38241125       0.80930144       0.55253965 </v>
   <v>       0.40958651       0.86308848       0.55409514 </v>
   <v>       0.45439864       0.89156058       0.51550600 </v>
   <v>       0.47090336       0.86400088       0.47529698 </v>
   <v>       0.44409155       0.81018620       0.47429004 </v>
   <v>       0.23181824       0.61399060       0.51281004 </v>
   <v>       0.39950211       0.61429745       0.51279097 </v>
   <v>       0.38311017       0.56947541       0.47416087 </v>
   <v>       0.41009418       0.54266724       0.47519124 </v>
   <v>       0.45413492       0.55917463       0.51545147 </v>
   <v>       0.47048045       0.60398129       0.55406687 </v>
   <v>       0.44388452       0.63114696       0.55249798 </v>
   <v>       0.73141451       0.36418749       0.50867049 </v>
   <v>       0.70385701       0.30998714       0.50866687 </v>
   <v>       0.64967270       0.28227236       0.50867459 </v>
   <v>       0.62304350       0.30981957       0.50873698 </v>
   <v>       0.64953787       0.36402443       0.50871760 </v>
   <v>       0.70372529       0.39067847       0.50874696 </v>
   <v>       0.62115078       0.22509989       0.50812422 </v>
   <v>       0.63797719       0.19747142       0.46858308 </v>
   <v>       0.61083291       0.14368139       0.46728128 </v>
   <v>       0.56606595       0.11528823       0.50598101 </v>
   <v>       0.54958414       0.14292661       0.54606745 </v>
   <v>       0.57638187       0.19674443       0.54685183 </v>
   <v>       0.78858071       0.39281810       0.50810093 </v>
   <v>       0.81689136       0.37625365       0.54663948 </v>
   <v>       0.87068915       0.40321614       0.54581498 </v>
   <v>       0.89836045       0.44743432       0.50588026 </v>
   <v>       0.87001886       0.46395294       0.46735388 </v>
   <v>       0.81624606       0.43736567       0.46869698 </v>
   <v>       0.62088641       0.39252541       0.50816124 </v>
   <v>       0.63730669       0.43731540       0.54686744 </v>
   <v>       0.61027714       0.46408138       0.54606829 </v>
   <v>       0.56614869       0.44755715       0.50598476 </v>
   <v>       0.54977887       0.40278103       0.46728817 </v>
   <v>       0.57642457       0.37566138       0.46861588 </v>
   <v>       0.48304596       0.94887888       0.51519228 </v>
   <v>       0.50143818       0.97853510       0.57428841 </v>
   <v>       0.52803545       0.03233881       0.56805434 </v>
   <v>       0.49503438       0.95460180       0.64258224 </v>
   <v>       0.48279531       0.53054153       0.51516757 </v>
   <v>       0.49411137       0.51221705       0.57427708 </v>
   <v>       0.52129760       0.48562540       0.56804838 </v>
   <v>       0.47666266       0.51869210       0.64258378 </v>
   <v>       0.98128967       0.49209736       0.56796485 </v>
   <v>       0.53742660       0.05797239       0.50639864 </v>
   <v>       0.51903595       0.02831511       0.44730216 </v>
   <v>       0.49244157       0.97451855       0.45354444 </v>
   <v>       0.52541574       0.05221668       0.37899098 </v>
   <v>       0.53748076       0.47617875       0.50639672 </v>
   <v>       0.52618289       0.49451971       0.44728158 </v>
   <v>       0.49899388       0.52110541       0.45352059 </v>
   <v>       0.54368076       0.48810949       0.37896612 </v>
   <v>       0.95566079       0.47605732       0.50628792 </v>
   <v>       0.98531110       0.48747032       0.44716856 </v>
   <v>       0.96140124       0.47015075       0.37882535 </v>
   <v>       0.12830644       0.61694537       0.44501960 </v>
   <v>       0.13003663       0.50834725       0.58476007 </v>
   <v>       0.09564399       0.57327999       0.64039123 </v>
   <v>       0.03263374       0.54129738       0.67615702 </v>
   <v>       0.06732191       0.50811227       0.66591570 </v>
   <v>       0.06250327       0.52269148       0.40827802 </v>
   <v>       0.22383568       0.66452451       0.44251253 </v>
   <v>       0.22535229       0.55608430       0.58309938 </v>
   <v>       0.34921255       0.55595747       0.44212285 </v>
   <v>       0.39678161       0.50800449       0.44468174 </v>
   <v>       0.45714987       0.66556749       0.58346522 </v>
   <v>       0.50486887       0.61798393       0.58521337 </v>
   <v>       0.45761734       0.78979179       0.44229839 </v>
   <v>       0.50556953       0.88535627       0.44480398 </v>
   <v>       0.39557764       0.88348117       0.58521133 </v>
   <v>       0.34797850       0.78814224       0.58347109 </v>
   <v>       0.29541409       0.71786459       0.51224089 </v>
   <v>       0.29567598       0.57400449       0.51216758 </v>
   <v>       0.43951335       0.71817595       0.51225336 </v>
   <v>       0.89194070       0.38973900       0.57620716 </v>
   <v>       0.79640773       0.34221231       0.57843497 </v>
   <v>       0.89051046       0.49845907       0.43642276 </v>
   <v>       0.79520775       0.45077921       0.43778343 </v>
   <v>       0.67128087       0.45085279       0.57876764 </v>
   <v>       0.62362225       0.49873203       0.57660648 </v>
   <v>       0.56313073       0.34126730       0.43758590 </v>
   <v>       0.51533834       0.38877130       0.43624443 </v>
   <v>       0.56289259       0.21721226       0.57876840 </v>
   <v>       0.51494660       0.12164291       0.57662722 </v>
   <v>       0.62482128       0.12322307       0.43625454 </v>
   <v>       0.67235899       0.21856387       0.43754167 </v>
   <v>       0.72499248       0.28898246       0.50845545 </v>
   <v>       0.72473940       0.43283731       0.50863087 </v>
   <v>       0.58089150       0.28866600       0.50859858 </v>
   <v>       0.54348209       0.05575545       0.61318993 </v>
   <v>       0.49513700       0.91796331       0.64024662 </v>
   <v>       0.52631426       0.98097981       0.67602211 </v>
   <v>       0.45839325       0.94625603       0.66622896 </v>
   <v>       0.52929703       0.47022136       0.61318885 </v>
   <v>       0.43998532       0.51870912       0.64028415 </v>
   <v>       0.47166338       0.48737360       0.67602840 </v>
   <v>       0.50505891       0.55531750       0.66622713 </v>
   <v>       0.95787851       0.48400416       0.61311857 </v>
   <v>       0.47698622       0.95109476       0.40842088 </v>
   <v>       0.52525168       0.08882829       0.38129286 </v>
   <v>       0.56208306       0.06062236       0.35535660 </v>
   <v>       0.49416572       0.02578904       0.34553725 </v>
   <v>       0.49101550       0.53653558       0.40838835 </v>
   <v>       0.58043125       0.48824964       0.38126855 </v>
   <v>       0.51537590       0.45144508       0.35534204 </v>
   <v>       0.54855059       0.51937176       0.34551917 </v>
   <v>       0.92474245       0.43340394       0.38101549 </v>
   <v>       0.95310089       0.49854502       0.35537452 </v>
   <v>       0.98776763       0.46533066       0.34527945 </v>
  </varray>
 </structure>
 <calculation>
  <scstep>
   <time name="dav">  633.99  640.77</time>
   <time name="total">  634.25  641.04</time>
   <energy>
    <i name="alphaZ">     35.57095219 </i>
    <i name="ewald">  40539.77442565 </i>
    <i name="hartreedc"> -49730.89264893 </i>
    <i name="XCdc">   1134.39938210 </i>
    <i name="pawpsdc">  30071.53704242 </i>
    <i name="pawaedc"> -30122.14465637 </i>
    <i name="eentropy">     -0.00000000 </i>
    <i name="bandstr">  -4045.69400366 </i>
    <i name="atom">  11268.95357382 </i>
    <i name="e_fr_energy">   -848.49593279 </i>
    <i name="e_wo_entrp">   -848.49593279 </i>
    <i name="e_0_energy">   -848.49593279 </i>
   </energy>
  </scstep>
  <scstep>
   <time name="dav">  722.53  730.28</time>
   <time name="total">  722.53  730.28</time>
   <energy>
    <i name="e_fr_energy">   -848.87817621 </i>
    <i name="e_wo_entrp">   -848.87817621 </i>
    <i name="e_0_energy">   -848.87817621 </i>
   </energy>
  </scstep>
  <scstep>
   <time name="dav">  778.01  786.19</time>
   <time name="total">  778.01  786.19</time>
   <energy>
    <i name="e_fr_energy">   -848.88762368 </i>
    <i name="e_wo_entrp">   -848.88762368 </i>
    <i name="e_0_energy">   -848.88762368 </i>
   </energy>
  </scstep>
  <scstep>
   <time name="dav">  709.90  717.35</time>
   <time name="total">  709.90  717.35</time>
   <energy>
    <i name="e_fr_energy">   -848.88780299 </i>
    <i name="e_wo_entrp">   -848.88780299 </i>
    <i name="e_0_energy">   -848.88780299 </i>
   </energy>
  </scstep>
  <scstep>
   <time name="dav">  663.68  670.64</time>
   <time name="total">  663.68  670.65</time>
   <energy>
    <i name="alphaZ">     35.57095219 </i>
    <i name="ewald">  40539.77442565 </i>
    <i name="hartreedc"> -49730.89264893 </i>
    <i name="XCdc">   1134.39938210 </i>
    <i name="pawpsdc">  30071.53704242 </i>
    <i name="pawaedc"> -30122.14465637 </i>
    <i name="eentropy">     -0.00000000 </i>
    <i name="bandstr">  -4046.08588270 </i>
    <i name="atom">  11268.95357382 </i>
    <i name="e_fr_energy">   -848.88781183 </i>
    <i name="e_wo_entrp">   -848.88781183 </i>
    <i name="e_0_energy">   -848.88781183 </i>
   </energy>
  </scstep>
  <structure>
   <crystal>
    <varray name="basis" >
     <v>      29.90352011      -0.00270176       0.00000000 </v>
     <v>     -14.95400014      25.88684708       0.00000000 </v>
     <v>       0.00000000       0.00000000      20.00000000 </v>
    </varray>
    <i name="volume">  15481.34899884 </i>
    <varray name="rec_basis" >
     <v>       0.03344262       0.01931873       0.00000000 </v>
     <v>       0.00000349       0.03863167       0.00000000 </v>
     <v>       0.00000000       0.00000000       0.05000000 </v>
    </varray>
   </crystal>
   <varray name="positions" >
    <v>       0.14962227       0.60352429       0.47538181 </v>
    <v>       0.12203193       0.55933942       0.51540812 </v>
    <v>       0.15046292       0.54286108       0.55381782 </v>
    <v>       0.06472454       0.53068186       0.51508655 </v>
    <v>       0.03507782       0.51925196       0.57421356 </v>
    <v>       0.05900125       0.53652270       0.64256129 </v>
    <v>       0.03909242       0.51462633       0.45341797 </v>
    <v>       0.20342198       0.63051082       0.47437809 </v>
    <v>       0.20423782       0.56946639       0.55228674 </v>
    <v>       0.28898282       0.64264495       0.51209404 </v>
    <v>       0.31654083       0.69684843       0.51207356 </v>
    <v>       0.37073219       0.72456938       0.51213270 </v>
    <v>       0.39736691       0.69702635       0.51206585 </v>
    <v>       0.37087169       0.64282452       0.51207377 </v>
    <v>       0.31668382       0.61616556       0.51201527 </v>
    <v>       0.39926275       0.78174951       0.51287830 </v>
    <v>       0.38241125       0.80930144       0.55253965 </v>
    <v>       0.40958651       0.86308848       0.55409514 </v>
    <v>       0.45439864       0.89156058       0.51550600 </v>
    <v>       0.47090336       0.86400088       0.47529698 </v>
    <v>       0.44409155       0.81018620       0.47429004 </v>
    <v>       0.23181824       0.61399060       0.51281004 </v>
    <v>       0.39950211       0.61429745       0.51279097 </v>
    <v>       0.38311017       0.56947541       0.47416087 </v>
    <v>       0.41009418       0.54266724       0.47519124 </v>
    <v>       0.45413492       0.55917463       0.51545147 </v>
    <v>       0.47048045       0.60398129       0.55406687 </v>
    <v>       0.44388452       0.63114696       0.55249798 </v>
    <v>       0.73141451       0.36418749       0.50867049 </v>
    <v>       0.70385701       0.30998714       0.50866687 </v>
    <v>       0.64967270       0.28227236       0.50867459 </v>
    <v>       0.62304350       0.30981957       0.50873698 </v>
    <v>       0.64953787       0.36402443       0.50871760 </v>
    <v>       0.70372529       0.39067847       0.50874696 </v>
    <v>       0.62115078       0.22509989       0.50812422 </v>
    <v>       0.63797719       0.19747142       0.46858308 </v>
    <v>       0.61083291       0.14368139       0.46728128 </v>
    <v>       0.56606595       0.11528823       0.50598101 </v>
    <v>       0.54958414       0.14292661       0.54606745 </v>
    <v>       0.57638187       0.19674443       0.54685183 </v>
    <v>       0.78858071       0.39281810       0.50810093 </v>
    <v>       0.81689136       0.37625365       0.54663948 </v>
    <v>       0.87068915       0.40321614       0.54581498 </v>
    <v>       0.89836045       0.44743432       0.50588026 </v>
    <v>       0.87001886       0.46395294       0.46735388 </v>
    <v>       0.81624606       0.43736567       0.46869698 </v>
    <v>       0.62088641       0.39252541       0.50816124 </v>
    <v>       0.63730669       0.43731540       0.54686744 </v>
    <v>       0.61027714       0.46408138       0.54606829 </v>
    <v>       0.56614869       0.44755715       0.50598476 </v>
    <v>       0.54977887       0.40278103       0.46728817 </v>
    <v>       0.57642457       0.37566138       0.46861588 </v>
    <v>       0.48304596       0.94887888       0.51519228 </v>
    <v>       0.50143818       0.97853510       0.57428841 </v>
    <v>       0.52803545       0.03233881       0.56805434 </v>
    <v>       0.49503438       0.95460180       0.64258224 </v>
    <v>       0.48279531       0.53054153       0.51516757 </v>
    <v>       0.49411137       0.51221705       0.57427708 </v>
    <v>       0.52129760       0.48562540       0.56804838 </v>
    <v>       0.47666266       0.51869210       0.64258378 </v>
    <v>       0.98128967       0.49209736       0.56796485 </v>
    <v>       0.53742660       0.05797239       0.50639864 </v>
    <v>       0.51903595       0.02831511       0.44730216 </v>
    <v>       0.49244157       0.97451855       0.45354444 </v>
    <v>       0.52541574       0.05221668       0.37899098 </v>
    <v>       0.53748076       0.47617875       0.50639672 </v>
    <v>       0.52618289       0.49451971       0.44728158 </v>
    <v>       0.49899388       0.52110541       0.45352059 </v>
    <v>       0.54368076       0.48810949       0.37896612 </v>
    <v>       0.95566079       0.47605732       0.50628792 </v>
    <v>       0.98531110       0.48747032       0.44716856 </v>
    <v>       0.96140124       0.47015075       0.37882535 </v>
    <v>       0.12830644       0.61694537       0.44501960 </v>
    <v>       0.13003663       0.50834725       0.58476007 </v>
    <v>       0.09564399       0.57327999       0.64039123 </v>
    <v>       0.03263374       0.54129738       0.67615702 </v>
    <v>       0.06732191       0.50811227       0.66591570 </v>
    <v>       0.06250327       0.52269148       0.40827802 </v>
    <v>       0.22383568       0.66452451       0.44251253 </v>
    <v>       0.22535229       0.55608430       0.58309938 </v>
    <v>       0.34921255       0.55595747       0.44212285 </v>
    <v>       0.39678161       0.50800449       0.44468174 </v>
    <v>       0.45714987       0.66556749       0.58346522 </v>
    <v>       0.50486887       0.61798393       0.58521337 </v>
    <v>       0.45761734       0.78979179       0.44229839 </v>
    <v>       0.50556953       0.88535627       0.44480398 </v>
    <v>       0.39557764       0.88348117       0.58521133 </v>
    <v>       0.34797850       0.78814224       0.58347109 </v>
    <v>       0.29541409       0.71786459       0.51224089 </v>
    <v>       0.29567598       0.57400449       0.51216758 </v>
    <v>       0.43951335       0.71817595       0.51225336 </v>
    <v>       0.89194070       0.38973900       0.57620716 </v>
    <v>       0.79640773       0.34221231       0.57843497 </v>
    <v>       0.89051046       0.49845907       0.43642276 </v>
    <v>       0.79520775       0.45077921       0.43778343 </v>
    <v>       0.67128087       0.45085279       0.57876764 </v>
    <v>       0.62362225       0.49873203       0.57660648 </v>
    <v>       0.56313073       0.34126730       0.43758590 </v>
    <v>       0.51533834       0.38877130       0.43624443 </v>
    <v>       0.56289259       0.21721226       0.57876840 </v>
    <v>       0.51494660       0.12164291       0.57662722 </v>
    <v>       0.62482128       0.12322307       0.43625454 </v>
    <v>       0.67235899       0.21856387       0.43754167 </v>
    <v>       0.72499248       0.28898246       0.50845545 </v>
    <v>       0.72473940       0.43283731       0.50863087 </v>
    <v>       0.58089150       0.28866600       0.50859858 </v>
    <v>       0.54348209       0.05575545       0.61318993 </v>
    <v>       0.49513700       0.91796331       0.64024662 </v>
    <v>       0.52631426       0.98097981       0.67602211 </v>
    <v>       0.45839325       0.94625603       0.66622896 </v>
    <v>       0.52929703       0.47022136       0.61318885 </v>
    <v>       0.43998532       0.51870912       0.64028415 </v>
    <v>       0.47166338       0.48737360       0.67602840 </v>
    <v>       0.50505891       0.55531750       0.66622713 </v>
    <v>       0.95787851       0.48400416       0.61311857 </v>
    <v>       0.47698622       0.95109476       0.40842088 </v>
    <v>       0.52525168       0.08882829       0.38129286 </v>
    <v>       0.56208306       0.06062236       0.35535660 </v>
    <v>       0.49416572       0.02578904       0.34553725 </v>
    <v>       0.49101550       0.53653558       0.40838835 </v>
    <v>       0.58043125       0.48824964       0.38126855 </v>
    <v>       0.51537590       0.45144508       0.35534204 </v>
    <v>       0.54855059       0.51937176       0.34551917 </v>
    <v>       0.92474245       0.43340394       0.38101549 </v>
    <v>       0.95310089       0.49854502       0.35537452 </v>
    <v>       0.98776763       0.46533066       0.34527945 </v>
   </varray>
  </structure>
  <varray name="forces" >
   <v>      -0.00448020      -0.00061916      -0.00060429 </v>
   <v>       0.00189191      -0.00077966      -0.00062523 </v>
   <v>      -0.00436388       0.00065606      -0.00418288 </v>
   <v>       0.00672843       0.00576841       0.00459152 </v>
   <v>       0.00265037      -0.00014433      -0.00498309 </v>
   <v>       0.00095374      -0.00107637      -0.00565254 </v>
   <v>       0.00076562       0.00091811       0.00645170 </v>
   <v>      -0.00076680       0.00079522      -0.00019616 </v>
   <v>      -0.00644703      -0.00249423      -0.00180319 </v>
   <v>       0.00547468       0.00444532      -0.00029712 </v>
   <v>      -0.00187628       0.00207147      -0.00020525 </v>
   <v>      -0.00483490      -0.00670293       0.00020465 </v>
   <v>       0.00087369       0.00152449      -0.00050457 </v>
   <v>      -0.00401180       0.00086624      -0.00074374 </v>
   <v>       0.00180139      -0.00404609      -0.00015399 </v>
   <v>      -0.00187011      -0.00609081       0.00348503 </v>
   <v>       0.00125415       0.00238579      -0.00049281 </v>
   <v>       0.00298759       0.00170070      -0.00357729 </v>
   <v>       0.00216514      -0.00296853      -0.00166215 </v>
   <v>      -0.00088381       0.00404302       0.00126102 </v>
   <v>       0.00218780       0.00311119      -0.00084269 </v>
   <v>       0.00507221       0.00373329       0.00172179 </v>
   <v>      -0.00478847       0.00191417       0.00194593 </v>
   <v>       0.00176772       0.00165238       0.00254753 </v>
   <v>       0.00122285       0.00056814       0.00220101 </v>
   <v>       0.00161503      -0.00090823       0.00012555 </v>
   <v>      -0.00103888      -0.00423876      -0.00462817 </v>
   <v>       0.00176304      -0.00038224      -0.00051775 </v>
   <v>      -0.00080304      -0.00177116      -0.00011445 </v>
   <v>       0.00513623       0.00085825       0.00070209 </v>
   <v>      -0.00068038       0.00726562      -0.00025452 </v>
   <v>      -0.00652448      -0.00135278       0.00058902 </v>
   <v>       0.00546786      -0.00657165      -0.00058141 </v>
   <v>      -0.00197290       0.00190398       0.00110678 </v>
   <v>       0.00121625       0.00256756      -0.00257279 </v>
   <v>      -0.00016474      -0.00511804      -0.00084098 </v>
   <v>      -0.00150993      -0.00115456       0.00237722 </v>
   <v>       0.00017974       0.00093229       0.00031316 </v>
   <v>       0.00168992      -0.00055797      -0.00146636 </v>
   <v>      -0.00059235      -0.00316920      -0.00026354 </v>
   <v>      -0.00722076      -0.00322324      -0.00201952 </v>
   <v>      -0.00232810      -0.00060726      -0.00065459 </v>
   <v>       0.00386505       0.00297678      -0.00034034 </v>
   <v>       0.00048382       0.00182673      -0.00105742 </v>
   <v>       0.00261564      -0.00279282       0.00495902 </v>
   <v>       0.00397211       0.00016023       0.00115163 </v>
   <v>       0.00299470       0.00021177      -0.00101470 </v>
   <v>      -0.00147475       0.00050121      -0.00095091 </v>
   <v>      -0.00292122      -0.00075430      -0.00169177 </v>
   <v>       0.00337482      -0.00280769       0.00026995 </v>
   <v>      -0.00031144       0.00576175       0.00585228 </v>
   <v>      -0.00193153       0.00079487      -0.00014807 </v>
   <v>       0.00044133      -0.00435374      -0.00348927 </v>
   <v>      -0.00076225      -0.00058611      -0.00198124 </v>
   <v>      -0.00085368       0.00278704      -0.00589349 </v>
   <v>      -0.00278188      -0.00176610      -0.00275522 </v>
   <v>      -0.00536809       0.00187348      -0.00188204 </v>
   <v>      -0.00545414       0.00339621      -0.00193303 </v>
   <v>       0.00261970      -0.00166075      -0.00532687 </v>
   <v>      -0.00352406       0.00282097       0.00236207 </v>
   <v>      -0.00061363      -0.00111584      -0.00315129 </v>
   <v>      -0.00095597       0.00655959       0.00574794 </v>
   <v>       0.00068914      -0.00135678       0.00214491 </v>
   <v>       0.00021084      -0.00353731       0.00578750 </v>
   <v>       0.00090295       0.00355065      -0.00251747 </v>
   <v>       0.00499755      -0.00106318      -0.00325373 </v>
   <v>       0.00029998      -0.00065566       0.00496739 </v>
   <v>       0.00014778      -0.00042937       0.00226499 </v>
   <v>      -0.00094291      -0.00147916       0.00662605 </v>
   <v>      -0.00286141      -0.00388042      -0.00051772 </v>
   <v>      -0.00501264      -0.00137885       0.00553927 </v>
   <v>      -0.00413128      -0.00032631       0.00008916 </v>
   <v>       0.00272813       0.00141148       0.00329268 </v>
   <v>       0.00110818      -0.00076534      -0.00123182 </v>
   <v>      -0.00028472       0.00059164       0.00148102 </v>
   <v>      -0.00271683      -0.00439770       0.00279978 </v>
   <v>       0.00526290      -0.00249886      -0.00013361 </v>
   <v>       0.00334021       0.00377616      -0.00399802 </v>
   <v>       0.00271043      -0.00354977       0.00107236 </v>
   <v>       0.00221999      -0.00076617       0.00073391 </v>
   <v>      -0.00069491       0.00291723      -0.00074735 </v>
   <v>      -0.00156982      -0.00116632       0.00162715 </v>
   <v>       0.00055039      -0.00069788      -0.00180942 </v>
   <v>       0.00138605       0.00108593      -0.00063914 </v>
   <v>      -0.00350856      -0.00104640       0.00026227 </v>
   <v>       0.00018031      -0.00276757       0.00224658 </v>
   <v>      -0.00213617       0.00046674       0.00012876 </v>
   <v>       0.00011209       0.00060841      -0.00057109 </v>
   <v>       0.00334211      -0.00264916      -0.00006109 </v>
   <v>       0.00083777       0.00347653      -0.00099181 </v>
   <v>      -0.00109479      -0.00013792      -0.00091295 </v>
   <v>      -0.00128771      -0.00120205      -0.00172438 </v>
   <v>      -0.00324817       0.00318714       0.00020313 </v>
   <v>       0.00025601       0.00240950       0.00029197 </v>
   <v>      -0.00087738      -0.00008805       0.00004680 </v>
   <v>      -0.00117615      -0.00382962       0.00017711 </v>
   <v>       0.00277760      -0.00000470      -0.00116491 </v>
   <v>      -0.00011531       0.00098418       0.00097539 </v>
   <v>      -0.00127525      -0.00164414       0.00064309 </v>
   <v>       0.00360716       0.00103792      -0.00006125 </v>
   <v>       0.00023833       0.00226161      -0.00254448 </v>
   <v>      -0.00015101       0.00081003       0.00153886 </v>
   <v>      -0.00070570      -0.00003805       0.00006907 </v>
   <v>      -0.00213251       0.00165797       0.00123890 </v>
   <v>      -0.00084905      -0.00129526       0.00061018 </v>
   <v>       0.00568552       0.00325021       0.00069929 </v>
   <v>      -0.00235399       0.00268151      -0.00022116 </v>
   <v>       0.00039493      -0.00140261       0.00184593 </v>
   <v>      -0.00197336       0.00548009       0.00376621 </v>
   <v>      -0.00477520      -0.00325480      -0.00016589 </v>
   <v>       0.00359744      -0.00037006       0.00321554 </v>
   <v>       0.00446199      -0.00199841       0.00168386 </v>
   <v>       0.00515816       0.00208884       0.00104608 </v>
   <v>      -0.00058225       0.00162689      -0.00345979 </v>
   <v>      -0.00048238      -0.00338164       0.00110018 </v>
   <v>       0.00181103      -0.00146729      -0.00024890 </v>
   <v>      -0.00097675      -0.00315306      -0.00155676 </v>
   <v>       0.00071615       0.00249007       0.00247811 </v>
   <v>       0.00320016      -0.00355766      -0.00102520 </v>
   <v>      -0.00315076      -0.00177715      -0.00043394 </v>
   <v>       0.00083407       0.00158582      -0.00211593 </v>
   <v>      -0.00018829      -0.00622623      -0.00049387 </v>
   <v>      -0.00615043       0.00132247      -0.00433348 </v>
   <v>       0.00277454       0.00139189      -0.00183477 </v>
   <v>      -0.00326128       0.00193619       0.00077492 </v>
   <v>       0.00300600       0.00561603      -0.00260862 </v>
  </varray>
  <varray name="stress" >
   <v>       0.00186482      -0.00014899       0.00006079 </v>
   <v>      -0.00014899       0.00049854      -0.00066286 </v>
   <v>       0.00006080      -0.00066286      -0.15432396 </v>
  </varray>
  <energy>
   <i name="e_fr_energy">   -851.35629633 </i>
   <i name="e_wo_entrp">   -851.35629633 </i>
   <i name="e_0_energy">     -0.00000000 </i>
  </energy>
  <time name="totalsc"> 4257.28 4304.21</time>
  <eigenvalues>
   <array>
    <dimension dim="1">band</dimension>
    <dimension dim="2">kpoint</dimension>
    <dimension dim="3">spin</dimension>
    <field>eigene</field>
    <field>occ</field>
    <set>
     <set comment="spin 1">
      <set comment="kpoint 1">
       <r>  -21.5761    1.0000 </r>
       <r>  -21.5325    1.0000 </r>
       <r>  -21.4087    1.0000 </r>
       <r>  -21.4084    1.0000 </r>
       <r>  -21.2253    1.0000 </r>
       <r>  -21.1518    1.0000 </r>
       <r>  -21.1517    1.0000 </r>
       <r>  -20.7831    1.0000 </r>
       <r>  -20.7828    1.0000 </r>
       <r>  -20.7612    1.0000 </r>
       <r>  -20.4265    1.0000 </r>
       <r>  -19.6866    1.0000 </r>
       <r>  -19.6863    1.0000 </r>
       <r>  -19.2947    1.0000 </r>
       <r>  -19.1716    1.0000 </r>
       <r>  -19.1715    1.0000 </r>
       <r>  -18.9767    1.0000 </r>
       <r>  -18.9763    1.0000 </r>
       <r>  -18.7782    1.0000 </r>
       <r>  -18.3095    1.0000 </r>
       <r>  -18.3093    1.0000 </r>
       <r>  -18.2366    1.0000 </r>
       <r>  -18.1440    1.0000 </r>
       <r>  -18.1438    1.0000 </r>
       <r>  -18.1214    1.0000 </r>
       <r>  -18.0977    1.0000 </r>
       <r>  -18.0763    1.0000 </r>
       <r>  -18.0762    1.0000 </r>
       <r>  -17.6025    1.0000 </r>
       <r>  -17.6022    1.0000 </r>
       <r>  -17.3335    1.0000 </r>
       <r>  -17.2584    1.0000 </r>
       <r>  -17.2582    1.0000 </r>
       <r>  -17.1965    1.0000 </r>
       <r>  -16.8787    1.0000 </r>
       <r>  -16.8782    1.0000 </r>
       <r>  -15.7544    1.0000 </r>
       <r>  -15.7543    1.0000 </r>
       <r>  -15.7424    1.0000 </r>
       <r>  -15.6001    1.0000 </r>
       <r>  -15.5996    1.0000 </r>
       <r>  -15.3668    1.0000 </r>
       <r>  -15.1023    1.0000 </r>
       <r>  -15.1018    1.0000 </r>
       <r>  -14.7683    1.0000 </r>
       <r>  -14.7429    1.0000 </r>
       <r>  -14.7423    1.0000 </r>
       <r>  -14.6745    1.0000 </r>
       <r>  -14.4259    1.0000 </r>
       <r>  -14.4252    1.0000 </r>
       <r>  -14.4060    1.0000 </r>
       <r>  -14.1954    1.0000 </r>
       <r>  -14.1947    1.0000 </r>
       <r>  -14.0726    1.0000 </r>
       <r>  -13.7277    1.0000 </r>
       <r>  -13.7274    1.0000 </r>
       <r>  -13.5793    1.0000 </r>
       <r>  -13.5790    1.0000 </r>
       <r>  -13.3710    1.0000 </r>
       <r>  -13.3289    1.0000 </r>
       <r>  -13.3287    1.0000 </r>
       <r>  -12.8364    1.0000 </r>
       <r>  -12.7131    1.0000 </r>
       <r>  -11.9951    1.0000 </r>
       <r>  -11.9951    1.0000 </r>
       <r>  -11.9944    1.0000 </r>
       <r>  -11.9943    1.0000 </r>
       <r>  -11.7639    1.0000 </r>
       <r>  -11.6637    1.0000 </r>
       <r>  -11.5980    1.0000 </r>
       <r>  -11.4721    1.0000 </r>
       <r>  -11.4717    1.0000 </r>
       <r>  -11.4650    1.0000 </r>
       <r>  -11.4048    1.0000 </r>
       <r>  -11.2405    1.0000 </r>
       <r>  -11.1559    1.0000 </r>
       <r>  -10.9679    1.0000 </r>
       <r>  -10.9678    1.0000 </r>
       <r>  -10.7991    1.0000 </r>
       <r>  -10.7989    1.0000 </r>
       <r>  -10.6608    1.0000 </r>
       <r>  -10.6603    1.0000 </r>
       <r>  -10.6078    1.0000 </r>
       <r>  -10.6072    1.0000 </r>
       <r>  -10.4219    1.0000 </r>
       <r>  -10.4217    1.0000 </r>
       <r>  -10.3535    1.0000 </r>
       <r>  -10.3483    1.0000 </r>
       <r>  -10.3091    1.0000 </r>
       <r>  -10.1408    1.0000 </r>
       <r>  -10.1404    1.0000 </r>
       <r>  -10.0949    1.0000 </r>
       <r>  -10.0027    1.0000 </r>
       <r>   -9.9666    1.0000 </r>
       <r>   -9.9663    1.0000 </r>
       <r>   -9.8690    1.0000 </r>
       <r>   -9.8645    1.0000 </r>
       <r>   -9.8642    1.0000 </r>
       <r>   -9.8619    1.0000 </r>
       <r>   -9.7700    1.0000 </r>
       <r>   -9.7698    1.0000 </r>
       <r>   -9.6823    1.0000 </r>
       <r>   -9.6532    1.0000 </r>
       <r>   -9.6268    1.0000 </r>
       <r>   -9.6265    1.0000 </r>
       <r>   -9.5985    1.0000 </r>
       <r>   -9.5984    1.0000 </r>
       <r>   -9.3893    1.0000 </r>
       <r>   -9.3621    1.0000 </r>
       <r>   -9.3619    1.0000 </r>
       <r>   -9.2305    1.0000 </r>
       <r>   -9.2297    1.0000 </r>
       <r>   -9.2294    1.0000 </r>
       <r>   -9.1467    1.0000 </r>
       <r>   -9.0577    1.0000 </r>
       <r>   -9.0573    1.0000 </r>
       <r>   -9.0408    1.0000 </r>
       <r>   -8.9745    1.0000 </r>
       <r>   -8.7984    1.0000 </r>
       <r>   -8.7982    1.0000 </r>
       <r>   -8.7979    1.0000 </r>
       <r>   -8.7974    1.0000 </r>
       <r>   -8.6222    1.0000 </r>
       <r>   -8.6217    1.0000 </r>
       <r>   -8.5663    1.0000 </r>
       <r>   -8.5364    1.0000 </r>
       <r>   -8.5361    1.0000 </r>
       <r>   -8.4250    1.0000 </r>
       <r>   -8.3553    1.0000 </r>
       <r>   -8.2767    1.0000 </r>
       <r>   -8.1835    1.0000 </r>
       <r>   -8.1832    1.0000 </r>
       <r>   -8.1350    1.0000 </r>
       <r>   -8.1348    1.0000 </r>
       <r>   -8.0242    1.0000 </r>
       <r>   -7.8965    1.0000 </r>
       <r>   -7.8961    1.0000 </r>
       <r>   -7.8904    1.0000 </r>
       <r>   -7.7704    1.0000 </r>
       <r>   -7.7703    1.0000 </r>
       <r>   -7.6236    1.0000 </r>
       <r>   -7.6168    1.0000 </r>
       <r>   -7.5977    1.0000 </r>
       <r>   -7.5972    1.0000 </r>
       <r>   -7.5670    1.0000 </r>
       <r>   -7.5662    1.0000 </r>
       <r>   -7.4278    1.0000 </r>
       <r>   -7.3480    1.0000 </r>
       <r>   -7.3479    1.0000 </r>
       <r>   -6.7829    1.0000 </r>
       <r>   -6.7819    1.0000 </r>
       <r>   -6.6310    1.0000 </r>
       <r>   -6.6297    1.0000 </r>
       <r>   -6.2792    1.0000 </r>
       <r>   -6.0215    1.0000 </r>
       <r>   -6.0214    1.0000 </r>
       <r>   -6.0207    1.0000 </r>
       <r>   -6.0205    1.0000 </r>
       <r>   -6.0197    1.0000 </r>
       <r>   -6.0191    1.0000 </r>
       <r>   -5.8861    1.0000 </r>
       <r>   -5.8859    1.0000 </r>
       <r>   -5.7239    1.0000 </r>
       <r>   -5.5277    1.0000 </r>
       <r>   -5.4830    1.0000 </r>
       <r>   -5.4827    1.0000 </r>
       <r>   -5.2821    1.0000 </r>
       <r>   -5.2815    1.0000 </r>
       <r>   -5.0678    1.0000 </r>
       <r>   -4.9190    1.0000 </r>
       <r>   -4.9182    1.0000 </r>
       <r>   -1.8312    0.0000 </r>
       <r>   -1.8304    0.0000 </r>
       <r>   -1.5653    0.0000 </r>
       <r>   -1.5642    0.0000 </r>
       <r>   -1.4959    0.0000 </r>
       <r>   -1.0395    0.0000 </r>
       <r>   -1.0235    0.0000 </r>
       <r>   -1.0227    0.0000 </r>
       <r>   -0.9758    0.0000 </r>
       <r>   -0.9387    0.0000 </r>
       <r>   -0.9385    0.0000 </r>
       <r>   -0.9160    0.0000 </r>
       <r>   -0.7539    0.0000 </r>
       <r>   -0.7532    0.0000 </r>
       <r>   -0.7126    0.0000 </r>
       <r>   -0.6599    0.0000 </r>
       <r>   -0.6594    0.0000 </r>
       <r>   -0.3169    0.0000 </r>
       <r>   -0.1712    0.0000 </r>
       <r>   -0.1643    0.0000 </r>
       <r>   -0.1638    0.0000 </r>
       <r>   -0.1461    0.0000 </r>
       <r>   -0.0935    0.0000 </r>
       <r>   -0.0920    0.0000 </r>
       <r>    0.0535    0.0000 </r>
       <r>    0.0538    0.0000 </r>
       <r>    0.0752    0.0000 </r>
       <r>    0.1203    0.0000 </r>
       <r>    0.1211    0.0000 </r>
       <r>    0.2532    0.0000 </r>
       <r>    0.2538    0.0000 </r>
       <r>    0.2972    0.0000 </r>
       <r>    0.3194    0.0000 </r>
       <r>    0.3681    0.0000 </r>
       <r>    0.3684    0.0000 </r>
       <r>    0.4855    0.0000 </r>
       <r>    0.4870    0.0000 </r>
       <r>    0.4933    0.0000 </r>
       <r>    0.5065    0.0000 </r>
       <r>    0.5075    0.0000 </r>
       <r>    0.5218    0.0000 </r>
       <r>    0.5543    0.0000 </r>
       <r>    0.6853    0.0000 </r>
       <r>    0.6877    0.0000 </r>
       <r>    0.7118    0.0000 </r>
       <r>    0.7345    0.0000 </r>
       <r>    0.7406    0.0000 </r>
       <r>    0.7442    0.0000 </r>
       <r>    0.7471    0.0000 </r>
       <r>    0.7796    0.0000 </r>
       <r>    0.7809    0.0000 </r>
       <r>    0.8114    0.0000 </r>
       <r>    0.8120    0.0000 </r>
       <r>    0.8770    0.0000 </r>
       <r>    0.8836    0.0000 </r>
       <r>    0.9140    0.0000 </r>
       <r>    0.9294    0.0000 </r>
       <r>    0.9307    0.0000 </r>
       <r>    0.9478    0.0000 </r>
       <r>    1.0050    0.0000 </r>
       <r>    1.0081    0.0000 </r>
       <r>    1.0822    0.0000 </r>
       <r>    1.0833    0.0000 </r>
       <r>    1.1279    0.0000 </r>
       <r>    1.1420    0.0000 </r>
       <r>    1.1463    0.0000 </r>
       <r>    1.1735    0.0000 </r>
       <r>    1.1795    0.0000 </r>
       <r>    1.1908    0.0000 </r>
      </set>
      <set comment="kpoint 2">
       <r>  -21.5761    1.0000 </r>
       <r>  -21.5326    1.0000 </r>
       <r>  -21.4087    1.0000 </r>
       <r>  -21.4082    1.0000 </r>
       <r>  -21.2263    1.0000 </r>
       <r>  -21.1518    1.0000 </r>
       <r>  -21.1507    1.0000 </r>
       <r>  -20.7878    1.0000 </r>
       <r>  -20.7830    1.0000 </r>
       <r>  -20.7563    1.0000 </r>
       <r>  -20.4269    1.0000 </r>
       <r>  -19.6866    1.0000 </r>
       <r>  -19.6858    1.0000 </r>
       <r>  -19.2965    1.0000 </r>
       <r>  -19.1716    1.0000 </r>
       <r>  -19.1699    1.0000 </r>
       <r>  -18.9767    1.0000 </r>
       <r>  -18.9764    1.0000 </r>
       <r>  -18.7778    1.0000 </r>
       <r>  -18.3137    1.0000 </r>
       <r>  -18.3094    1.0000 </r>
       <r>  -18.2327    1.0000 </r>
       <r>  -18.1439    1.0000 </r>
       <r>  -18.1437    1.0000 </r>
       <r>  -18.1214    1.0000 </r>
       <r>  -18.0977    1.0000 </r>
       <r>  -18.0763    1.0000 </r>
       <r>  -18.0758    1.0000 </r>
       <r>  -17.6031    1.0000 </r>
       <r>  -17.6023    1.0000 </r>
       <r>  -17.3335    1.0000 </r>
       <r>  -17.2596    1.0000 </r>
       <r>  -17.2583    1.0000 </r>
       <r>  -17.1947    1.0000 </r>
       <r>  -16.8789    1.0000 </r>
       <r>  -16.8783    1.0000 </r>
       <r>  -15.7544    1.0000 </r>
       <r>  -15.7543    1.0000 </r>
       <r>  -15.7424    1.0000 </r>
       <r>  -15.6001    1.0000 </r>
       <r>  -15.5994    1.0000 </r>
       <r>  -15.3676    1.0000 </r>
       <r>  -15.1023    1.0000 </r>
       <r>  -15.1008    1.0000 </r>
       <r>  -14.7682    1.0000 </r>
       <r>  -14.7430    1.0000 </r>
       <r>  -14.7425    1.0000 </r>
       <r>  -14.6743    1.0000 </r>
       <r>  -14.4263    1.0000 </r>
       <r>  -14.4257    1.0000 </r>
       <r>  -14.4067    1.0000 </r>
       <r>  -14.1950    1.0000 </r>
       <r>  -14.1938    1.0000 </r>
       <r>  -14.0725    1.0000 </r>
       <r>  -13.7278    1.0000 </r>
       <r>  -13.7275    1.0000 </r>
       <r>  -13.5795    1.0000 </r>
       <r>  -13.5789    1.0000 </r>
       <r>  -13.3709    1.0000 </r>
       <r>  -13.3289    1.0000 </r>
       <r>  -13.3287    1.0000 </r>
       <r>  -12.8363    1.0000 </r>
       <r>  -12.7133    1.0000 </r>
       <r>  -11.9952    1.0000 </r>
       <r>  -11.9952    1.0000 </r>
       <r>  -11.9943    1.0000 </r>
       <r>  -11.9941    1.0000 </r>
       <r>  -11.7635    1.0000 </r>
       <r>  -11.6635    1.0000 </r>
       <r>  -11.5981    1.0000 </r>
       <r>  -11.4730    1.0000 </r>
       <r>  -11.4722    1.0000 </r>
       <r>  -11.4647    1.0000 </r>
       <r>  -11.4036    1.0000 </r>
       <r>  -11.2412    1.0000 </r>
       <r>  -11.1564    1.0000 </r>
       <r>  -10.9677    1.0000 </r>
       <r>  -10.9672    1.0000 </r>
       <r>  -10.7993    1.0000 </r>
       <r>  -10.7990    1.0000 </r>
       <r>  -10.6607    1.0000 </r>
       <r>  -10.6601    1.0000 </r>
       <r>  -10.6079    1.0000 </r>
       <r>  -10.6072    1.0000 </r>
       <r>  -10.4217    1.0000 </r>
       <r>  -10.4217    1.0000 </r>
       <r>  -10.3534    1.0000 </r>
       <r>  -10.3483    1.0000 </r>
       <r>  -10.3093    1.0000 </r>
       <r>  -10.1408    1.0000 </r>
       <r>  -10.1404    1.0000 </r>
       <r>  -10.0949    1.0000 </r>
       <r>  -10.0026    1.0000 </r>
       <r>   -9.9666    1.0000 </r>
[...]
       <r>   -16.8710    35.6368    71.6603 </r>
       <r>   -16.7875     0.0000    72.0000 </r>
       <r>   -16.7040     0.0000    72.0000 </r>
       <r>   -16.6205     0.0000    72.0000 </r>
       <r>   -16.5370     0.0000    72.0000 </r>
       <r>   -16.4536     0.0000    72.0000 </r>
       <r>   -16.3701     0.0000    72.0000 </r>
       <r>   -16.2866     0.0000    72.0000 </r>
       <r>   -16.2031     0.0000    72.0000 </r>
       <r>   -16.1196     0.0000    72.0000 </r>
       <r>   -16.0362     0.0000    72.0000 </r>
       <r>   -15.9527     0.0000    72.0000 </r>
       <r>   -15.8692     0.0000    72.0000 </r>
       <r>   -15.7857     0.0002    72.0000 </r>
       <r>   -15.7023    71.8743    78.0000 </r>
       <r>   -15.6188     0.0689    78.0058 </r>
       <r>   -15.5353    42.9811    81.5938 </r>
       <r>   -15.4518    17.1133    83.1548 </r>
       <r>   -15.3683     8.1481    83.8851 </r>
       <r>   -15.2849     0.0000    84.0000 </r>
       <r>   -15.2014     0.0000    84.0000 </r>
       <r>   -15.1179     5.0102    84.4182 </r>
       <r>   -15.0344    21.9893    86.6093 </r>
       <r>   -14.9509     7.3955    87.2558 </r>
       <r>   -14.8675     9.5789    88.1819 </r>
       <r>   -14.7840    12.3281    89.2454 </r>
       <r>   -14.7005    51.2317    93.5910 </r>
       <r>   -14.6170    26.0205    96.0000 </r>
       <r>   -14.5335     4.6976    96.3921 </r>
       <r>   -14.4501    31.8300    99.3768 </r>
       <r>   -14.3666    29.2061   102.0000 </r>
       <r>   -14.2831     0.0000   102.0000 </r>
       <r>   -14.1996     1.2200   102.1018 </r>
       <r>   -14.1162    32.3412   104.8017 </r>
       <r>   -14.0327    37.3212   108.0000 </r>
       <r>   -13.9492     0.0000   108.0000 </r>
       <r>   -13.8657     0.0000   108.0000 </r>
       <r>   -13.7822     0.1540   108.0129 </r>
       <r>   -13.6988    39.6709   111.3245 </r>
       <r>   -13.6153    18.5817   113.0075 </r>
       <r>   -13.5318    34.0305   116.0000 </r>
       <r>   -13.4483     0.0000   116.0000 </r>
       <r>   -13.3648     6.3756   116.5322 </r>
       <r>   -13.2814    62.5543   122.0000 </r>
       <r>   -13.1979     0.0000   122.0000 </r>
       <r>   -13.1144     0.0000   122.0000 </r>
       <r>   -13.0309     0.0000   122.0000 </r>
       <r>   -12.9474     0.0000   122.0000 </r>
       <r>   -12.8640     0.0001   122.0000 </r>
       <r>   -12.7805    24.6564   124.0583 </r>
       <r>   -12.6970    21.3948   125.9976 </r>
       <r>   -12.6135     0.0000   126.0000 </r>
       <r>   -12.5301     0.0000   126.0000 </r>
       <r>   -12.4466     0.0000   126.0000 </r>
       <r>   -12.3631     0.0000   126.0000 </r>
       <r>   -12.2796     0.0000   126.0000 </r>
       <r>   -12.1961     0.0000   126.0000 </r>
       <r>   -12.1127     0.0000   126.0000 </r>
       <r>   -12.0292     0.0002   126.0000 </r>
       <r>   -11.9457    95.8324   134.0000 </r>
       <r>   -11.8622     0.0000   134.0000 </r>
       <r>   -11.7787     0.0382   134.0032 </r>
       <r>   -11.6953    12.1951   135.0212 </r>
       <r>   -11.6118    44.3149   138.7736 </r>
       <r>   -11.5283    26.3774   141.3586 </r>
       <r>   -11.4448    40.3063   144.7512 </r>
       <r>   -11.3613    27.8633   147.1652 </r>
       <r>   -11.2779    20.7707   149.0820 </r>
       <r>   -11.1944    24.7153   151.2664 </r>
       <r>   -11.1109     8.1545   152.0000 </r>
       <r>   -11.0274     0.0000   152.0000 </r>
       <r>   -10.9440    22.7890   153.9024 </r>
       <r>   -10.8605    12.8960   155.5335 </r>
       <r>   -10.7770    50.0797   159.9996 </r>
       <r>   -10.6935     0.0000   160.0000 </r>
       <r>   -10.6100    80.7480   166.7408 </r>
       <r>   -10.5266     0.0000   168.0000 </r>
       <r>   -10.4431     0.0352   168.0029 </r>
       <r>   -10.3596    58.3074   172.8704 </r>
       <r>   -10.2761    56.8082   178.0000 </r>
       <r>   -10.1926     0.0000   178.0000 </r>
       <r>   -10.1092    53.9840   182.5065 </r>
       <r>   -10.0257    10.9076   184.0002 </r>
       <r>    -9.9422    71.8275   189.9962 </r>
       <r>    -9.8587    70.3689   195.8743 </r>
       <r>    -9.7752    37.6979   199.6512 </r>
       <r>    -9.6918    26.2575   202.0448 </r>
       <r>    -9.6083   111.9050   211.3865 </r>
       <r>    -9.5248    27.4014   214.0000 </r>
       <r>    -9.4413     0.0000   214.0000 </r>
       <r>    -9.3579    57.5899   218.8075 </r>
       <r>    -9.2744     0.0000   220.0000 </r>
       <r>    -9.1909    71.8744   226.0000 </r>
       <r>    -9.1074    21.8045   227.8202 </r>
       <r>    -9.0239    55.4706   232.7090 </r>
       <r>    -8.9405    37.5627   236.0000 </r>
       <r>    -8.8570     0.0000   236.0000 </r>
       <r>    -8.7735    95.6871   243.9879 </r>
       <r>    -8.6900     0.0000   244.0000 </r>
       <r>    -8.6065    17.6379   245.4724 </r>
       <r>    -8.5231    89.5636   253.2312 </r>
       <r>    -8.4396    19.2835   255.1041 </r>
       <r>    -8.3561    33.3012   257.9275 </r>
       <r>    -8.2726    20.8484   259.9415 </r>
       <r>    -8.1892    21.9995   261.8365 </r>
       <r>    -8.1057    43.7099   265.5923 </r>
       <r>    -8.0222    29.9885   268.3799 </r>
       <r>    -7.9387    29.7998   271.1579 </r>
       <r>    -7.8552    47.4619   275.1607 </r>
       <r>    -7.7718    35.3547   278.2298 </r>
       <r>    -7.6883    14.8056   280.0000 </r>
       <r>    -7.6048    67.5615   285.6400 </r>
       <r>    -7.5213    70.9013   291.8247 </r>
       <r>    -7.4378     0.2422   292.0202 </r>
       <r>    -7.3544    48.0482   296.0312 </r>
       <r>    -7.2709    15.5374   298.0000 </r>
       <r>    -7.1874     0.0000   298.0000 </r>
       <r>    -7.1039     0.0000   298.0000 </r>
       <r>    -7.0204     0.0000   298.0000 </r>
       <r>    -6.9370     0.0000   298.0000 </r>
       <r>    -6.8535     0.0000   298.0000 </r>
       <r>    -6.7700    29.7329   300.4821 </r>
       <r>    -6.6865    27.8362   303.0195 </r>
       <r>    -6.6031    34.8396   305.9998 </r>
       <r>    -6.5196     0.0000   306.0000 </r>
       <r>    -6.4361     0.0000   306.0000 </r>
       <r>    -6.3526     0.0000   306.0000 </r>
       <r>    -6.2691     3.3333   306.2783 </r>
       <r>    -6.1857     7.2745   306.9594 </r>
       <r>    -6.1022    13.6545   308.1236 </r>
       <r>    -6.0187    95.5251   316.1533 </r>
       <r>    -5.9352     5.5047   321.5389 </r>
       <r>    -5.8517    29.0992   324.0000 </r>
       <r>    -5.7683     0.0000   324.0000 </r>
       <r>    -5.6848     5.0478   324.4214 </r>
       <r>    -5.6013     6.3184   324.9713 </r>
       <r>    -5.5178    35.2084   327.9576 </r>
       <r>    -5.4343    45.8261   331.8255 </r>
       <r>    -5.3509    15.3030   333.2034 </r>
       <r>    -5.2674    32.5029   335.9565 </r>
       <r>    -5.1839     0.0000   336.0000 </r>
       <r>    -5.1004     0.0000   336.0000 </r>
       <r>    -5.0170    10.0298   336.8373 </r>
       <r>    -4.9335    29.7491   339.3713 </r>
       <r>    -4.8500    30.1462   342.0000 </r>
       <r>    -4.7665     0.0000   342.0000 </r>
       <r>    -4.6830     0.0000   342.0000 </r>
       <r>    -4.5996     0.0000   342.0000 </r>
       <r>    -4.5161     0.0000   342.0000 </r>
       <r>    -4.4326     0.0000   342.0000 </r>
       <r>    -4.3491     0.0000   342.0000 </r>
       <r>    -4.2656     0.0000   342.0000 </r>
       <r>    -4.1822     0.0000   342.0000 </r>
       <r>    -4.0987     0.0000   342.0000 </r>
       <r>    -4.0152     0.0000   342.0000 </r>
       <r>    -3.9317     0.0000   342.0000 </r>
       <r>    -3.8482     0.0000   342.0000 </r>
       <r>    -3.7648     0.0000   342.0000 </r>
       <r>    -3.6813     0.0000   342.0000 </r>
       <r>    -3.5978     0.0000   342.0000 </r>
       <r>    -3.5143     0.0000   342.0000 </r>
       <r>    -3.4309     0.0000   342.0000 </r>
       <r>    -3.3474     0.0000   342.0000 </r>
       <r>    -3.2639     0.0000   342.0000 </r>
       <r>    -3.1804     0.0000   342.0000 </r>
       <r>    -3.0969     0.0000   342.0000 </r>
       <r>    -3.0135     0.0000   342.0000 </r>
       <r>    -2.9300     0.0000   342.0000 </r>
       <r>    -2.8465     0.0000   342.0000 </r>
       <r>    -2.7630     0.0000   342.0000 </r>
       <r>    -2.6795     0.0000   342.0000 </r>
       <r>    -2.5961     0.0000   342.0000 </r>
       <r>    -2.5126     0.0000   342.0000 </r>
       <r>    -2.4291     0.0000   342.0000 </r>
       <r>    -2.3456     0.0000   342.0000 </r>
       <r>    -2.2621     0.0000   342.0000 </r>
       <r>    -2.1787     0.0000   342.0000 </r>
       <r>    -2.0952     0.0000   342.0000 </r>
       <r>    -2.0117     0.0000   342.0000 </r>
       <r>    -1.9282     0.0000   342.0000 </r>
       <r>    -1.8448     0.6327   342.0528 </r>
       <r>    -1.7613    45.1983   345.8259 </r>
       <r>    -1.6778    15.4601   347.2169 </r>
       <r>    -1.5943     5.6209   347.7148 </r>
       <r>    -1.5108    27.0675   350.0015 </r>
       <r>    -1.4274     5.3636   350.4493 </r>
       <r>    -1.3439     3.9803   350.8083 </r>
       <r>    -1.2604     9.0728   351.5720 </r>
       <r>    -1.1769     8.1127   352.2938 </r>
       <r>    -1.0934     9.3855   353.1246 </r>
       <r>    -1.0100    72.3782   359.1819 </r>
       <r>    -0.9265    76.1935   365.7336 </r>
       <r>    -0.8430     1.7278   366.0000 </r>
       <r>    -0.7595     3.0751   366.2567 </r>
       <r>    -0.6760    69.4290   372.0526 </r>
       <r>    -0.5926    31.2217   374.6589 </r>
       <r>    -0.5091     5.0903   375.1017 </r>
       <r>    -0.4256    10.8680   376.0493 </r>
       <r>    -0.3421    10.5822   376.9904 </r>
       <r>    -0.2587    36.4378   380.0779 </r>
       <r>    -0.1752    16.1526   381.7413 </r>
       <r>    -0.0917    53.3236   386.2809 </r>
       <r>    -0.0082    26.0893   388.7801 </r>
       <r>     0.0753    64.3873   394.2959 </r>
       <r>     0.1587    72.2741   400.9105 </r>
       <r>     0.2422    27.9159   403.3425 </r>
       <r>     0.3257    18.4667   405.0368 </r>
       <r>     0.4092    77.9134   411.7517 </r>
       <r>     0.4927    41.3230   415.2783 </r>
       <r>     0.5761   105.8398   424.5088 </r>
       <r>     0.6596    48.8361   428.9686 </r>
       <r>     0.7431    89.5902   436.8063 </r>
       <r>     0.8266    85.5589   444.7351 </r>
       <r>     0.9101    81.3150   451.8326 </r>
       <r>     0.9935    96.9085   460.6682 </r>
       <r>     1.0770    89.4370   468.6533 </r>
       <r>     1.1605   106.3451   478.2188 </r>
       <r>     1.2440    16.9704   480.0000 </r>
       <r>     1.3274     0.0000   480.0000 </r>
       <r>     1.4109     0.0000   480.0000 </r>
       <r>     1.4944     0.0000   480.0000 </r>
       <r>     1.5779     0.0000   480.0000 </r>
       <r>     1.6614     0.0000   480.0000 </r>
       <r>     1.7448     0.0000   480.0000 </r>
       <r>     1.8283     0.0000   480.0000 </r>
       <r>     1.9118     0.0000   480.0000 </r>
       <r>     1.9953     0.0000   480.0000 </r>
       <r>     2.0788     0.0000   480.0000 </r>
       <r>     2.1622     0.0000   480.0000 </r>
       <r>     2.2457     0.0000   480.0000 </r>
       <r>     2.3292     0.0000   480.0000 </r>
      </set>
     </set>
    </array>
   </total>
  </dos>
 </calculation>
 <structure name="finalpos" >
  <crystal>
   <varray name="basis" >
    <v>      29.90352011      -0.00270176       0.00000000 </v>
    <v>     -14.95400014      25.88684708       0.00000000 </v>
    <v>       0.00000000       0.00000000      20.00000000 </v>
   </varray>
   <i name="volume">  15481.34899884 </i>
   <varray name="rec_basis" >
    <v>       0.03344262       0.01931873       0.00000000 </v>
    <v>       0.00000349       0.03863167       0.00000000 </v>
    <v>       0.00000000       0.00000000       0.05000000 </v>
   </varray>
  </crystal>
  <varray name="positions" >
   <v>       0.14962227       0.60352429       0.47538181 </v>
   <v>       0.12203193       0.55933942       0.51540812 </v>
   <v>       0.15046292       0.54286108       0.55381782 </v>
   <v>       0.06472454       0.53068186       0.51508655 </v>
   <v>       0.03507782       0.51925196       0.57421356 </v>
   <v>       0.05900125       0.53652270       0.64256129 </v>
   <v>       0.03909242       0.51462633       0.45341797 </v>
   <v>       0.20342198       0.63051082       0.47437809 </v>
   <v>       0.20423782       0.56946639       0.55228674 </v>
   <v>       0.28898282       0.64264495       0.51209404 </v>
   <v>       0.31654083       0.69684843       0.51207356 </v>
   <v>       0.37073219       0.72456938       0.51213270 </v>
   <v>       0.39736691       0.69702635       0.51206585 </v>
   <v>       0.37087169       0.64282452       0.51207377 </v>
   <v>       0.31668382       0.61616556       0.51201527 </v>
   <v>       0.39926275       0.78174951       0.51287830 </v>
   <v>       0.38241125       0.80930144       0.55253965 </v>
   <v>       0.40958651       0.86308848       0.55409514 </v>
   <v>       0.45439864       0.89156058       0.51550600 </v>
   <v>       0.47090336       0.86400088       0.47529698 </v>
   <v>       0.44409155       0.81018620       0.47429004 </v>
   <v>       0.23181824       0.61399060       0.51281004 </v>
   <v>       0.39950211       0.61429745       0.51279097 </v>
   <v>       0.38311017       0.56947541       0.47416087 </v>
   <v>       0.41009418       0.54266724       0.47519124 </v>
   <v>       0.45413492       0.55917463       0.51545147 </v>
   <v>       0.47048045       0.60398129       0.55406687 </v>
   <v>       0.44388452       0.63114696       0.55249798 </v>
   <v>       0.73141451       0.36418749       0.50867049 </v>
   <v>       0.70385701       0.30998714       0.50866687 </v>
   <v>       0.64967270       0.28227236       0.50867459 </v>
   <v>       0.62304350       0.30981957       0.50873698 </v>
   <v>       0.64953787       0.36402443       0.50871760 </v>
   <v>       0.70372529       0.39067847       0.50874696 </v>
   <v>       0.62115078       0.22509989       0.50812422 </v>
   <v>       0.63797719       0.19747142       0.46858308 </v>
   <v>       0.61083291       0.14368139       0.46728128 </v>
   <v>       0.56606595       0.11528823       0.50598101 </v>
   <v>       0.54958414       0.14292661       0.54606745 </v>
   <v>       0.57638187       0.19674443       0.54685183 </v>
   <v>       0.78858071       0.39281810       0.50810093 </v>
   <v>       0.81689136       0.37625365       0.54663948 </v>
   <v>       0.87068915       0.40321614       0.54581498 </v>
   <v>       0.89836045       0.44743432       0.50588026 </v>
   <v>       0.87001886       0.46395294       0.46735388 </v>
   <v>       0.81624606       0.43736567       0.46869698 </v>
   <v>       0.62088641       0.39252541       0.50816124 </v>
   <v>       0.63730669       0.43731540       0.54686744 </v>
   <v>       0.61027714       0.46408138       0.54606829 </v>
   <v>       0.56614869       0.44755715       0.50598476 </v>
   <v>       0.54977887       0.40278103       0.46728817 </v>
   <v>       0.57642457       0.37566138       0.46861588 </v>
   <v>       0.48304596       0.94887888       0.51519228 </v>
   <v>       0.50143818       0.97853510       0.57428841 </v>
   <v>       0.52803545       0.03233881       0.56805434 </v>
   <v>       0.49503438       0.95460180       0.64258224 </v>
   <v>       0.48279531       0.53054153       0.51516757 </v>
   <v>       0.49411137       0.51221705       0.57427708 </v>
   <v>       0.52129760       0.48562540       0.56804838 </v>
   <v>       0.47666266       0.51869210       0.64258378 </v>
   <v>       0.98128967       0.49209736       0.56796485 </v>
   <v>       0.53742660       0.05797239       0.50639864 </v>
   <v>       0.51903595       0.02831511       0.44730216 </v>
   <v>       0.49244157       0.97451855       0.45354444 </v>
   <v>       0.52541574       0.05221668       0.37899098 </v>
   <v>       0.53748076       0.47617875       0.50639672 </v>
   <v>       0.52618289       0.49451971       0.44728158 </v>
   <v>       0.49899388       0.52110541       0.45352059 </v>
   <v>       0.54368076       0.48810949       0.37896612 </v>
   <v>       0.95566079       0.47605732       0.50628792 </v>
   <v>       0.98531110       0.48747032       0.44716856 </v>
   <v>       0.96140124       0.47015075       0.37882535 </v>
   <v>       0.12830644       0.61694537       0.44501960 </v>
   <v>       0.13003663       0.50834725       0.58476007 </v>
   <v>       0.09564399       0.57327999       0.64039123 </v>
   <v>       0.03263374       0.54129738       0.67615702 </v>
   <v>       0.06732191       0.50811227       0.66591570 </v>
   <v>       0.06250327       0.52269148       0.40827802 </v>
   <v>       0.22383568       0.66452451       0.44251253 </v>
   <v>       0.22535229       0.55608430       0.58309938 </v>
   <v>       0.34921255       0.55595747       0.44212285 </v>
   <v>       0.39678161       0.50800449       0.44468174 </v>
   <v>       0.45714987       0.66556749       0.58346522 </v>
   <v>       0.50486887       0.61798393       0.58521337 </v>
   <v>       0.45761734       0.78979179       0.44229839 </v>
   <v>       0.50556953       0.88535627       0.44480398 </v>
   <v>       0.39557764       0.88348117       0.58521133 </v>
   <v>       0.34797850       0.78814224       0.58347109 </v>
   <v>       0.29541409       0.71786459       0.51224089 </v>
   <v>       0.29567598       0.57400449       0.51216758 </v>
   <v>       0.43951335       0.71817595       0.51225336 </v>
   <v>       0.89194070       0.38973900       0.57620716 </v>
   <v>       0.79640773       0.34221231       0.57843497 </v>
   <v>       0.89051046       0.49845907       0.43642276 </v>
   <v>       0.79520775       0.45077921       0.43778343 </v>
   <v>       0.67128087       0.45085279       0.57876764 </v>
   <v>       0.62362225       0.49873203       0.57660648 </v>
   <v>       0.56313073       0.34126730       0.43758590 </v>
   <v>       0.51533834       0.38877130       0.43624443 </v>
   <v>       0.56289259       0.21721226       0.57876840 </v>
   <v>       0.51494660       0.12164291       0.57662722 </v>
   <v>       0.62482128       0.12322307       0.43625454 </v>
   <v>       0.67235899       0.21856387       0.43754167 </v>
   <v>       0.72499248       0.28898246       0.50845545 </v>
   <v>       0.72473940       0.43283731       0.50863087 </v>
   <v>       0.58089150       0.28866600       0.50859858 </v>
   <v>       0.54348209       0.05575545       0.61318993 </v>
   <v>       0.49513700       0.91796331       0.64024662 </v>
   <v>       0.52631426       0.98097981       0.67602211 </v>
   <v>       0.45839325       0.94625603       0.66622896 </v>
   <v>       0.52929703       0.47022136       0.61318885 </v>
   <v>       0.43998532       0.51870912       0.64028415 </v>
   <v>       0.47166338       0.48737360       0.67602840 </v>
   <v>       0.50505891       0.55531750       0.66622713 </v>
   <v>       0.95787851       0.48400416       0.61311857 </v>
   <v>       0.47698622       0.95109476       0.40842088 </v>
   <v>       0.52525168       0.08882829       0.38129286 </v>
   <v>       0.56208306       0.06062236       0.35535660 </v>
   <v>       0.49416572       0.02578904       0.34553725 </v>
   <v>       0.49101550       0.53653558       0.40838835 </v>
   <v>       0.58043125       0.48824964       0.38126855 </v>
   <v>       0.51537590       0.45144508       0.35534204 </v>
   <v>       0.54855059       0.51937176       0.34551917 </v>
   <v>       0.92474245       0.43340394       0.38101549 </v>
   <v>       0.95310089       0.49854502       0.35537452 </v>
   <v>       0.98776763       0.46533066       0.34527945 </v>
  </varray>
 </structure>
</modeling>
