<?xml version="1.0" encoding="ISO-8859-1"?>
<modeling>
 <generator>
  <i name="program" type="string">vasp </i>
  <i name="version" type="string">5.4.4.18Apr17-6-g9f103f2a35  </i>
  <i name="subversion" type="string">(build Jun 07 2020 16:50:00) complex            parallel </i>
  <i name="platform" type="string">LinuxIFC </i>
  <i name="date" type="string">2023 02 23 </i>
  <i name="time" type="string">00:30:58 </i>
 </generator>
 <incar>
  <i type="string" name="SYSTEM">Simulation for cell shape cell volume r</i>
  <i type="int" name="ISTART">     1</i>
  <i type="string" name="PREC">high</i>
  <i type="string" name="ALGO">48</i>
  <i type="int" name="ICHARG">    11</i>
  <i type="int" name="NELM">   200</i>
  <i type="int" name="IBRION">    -1</i>
  <i name="EDIFF">      0.00001000</i>
  <i name="EDIFFG">     -0.01000000</i>
  <i type="int" name="NSW">     0</i>
  <i type="int" name="ISIF">     2</i>
  <i name="ENCUT">    500.00000000</i>
  <i name="POTIM">      0.30000000</i>
  <i type="string" name="LREAL">A</i>
  <i type="int" name="ISMEAR">     0</i>
  <i name="SIGMA">      0.01000000</i>
  <i type="int" name="NWRITE">     0</i>
  <i type="logical" name="LWAVE"> F  </i>
  <i type="logical" name="LCHARG"> F  </i>
  <v type="int" name="KPOINT_BSE">    -1     0     0     0</v>
  <i type="int" name="NELM">   200</i>
  <i type="string" name="GGA">PE</i>
 </incar>
 <structure name="primitive_cell" >
  <crystal>
   <varray name="basis" >
    <v>      24.93585635       0.00458111       0.00000000 </v>
    <v>      -0.01224527      24.96110613       0.00000000 </v>
    <v>       0.00000000       0.00000000      20.00000000 </v>
   </varray>
   <i name="volume">  12448.53226106 </i>
   <varray name="rec_basis" >
    <v>       0.04010289       0.00001967       0.00000000 </v>
    <v>      -0.00000736       0.04006232       0.00000000 </v>
    <v>       0.00000000       0.00000000       0.05000000 </v>
   </varray>
  </crystal>
  <varray name="positions" >
   <v>       0.07444345       0.27628172       0.44681933 </v>
   <v>       0.09541887       0.29506575       0.40492752 </v>
   <v>       0.06399533       0.22132994       0.44521123 </v>
   <v>       0.05846753       0.30764769      -0.49863105 </v>
   <v>       0.07617799       0.19750659       0.40205649 </v>
   <v>       0.03207736       0.28249445      -0.44530913 </v>
   <v>       0.03776319       0.19610289       0.49873507 </v>
   <v>       0.06789372       0.36732704      -0.49794214 </v>
   <v>       0.10606351       0.37695029       0.47636993 </v>
   <v>       0.02214867       0.22757387      -0.44632414 </v>
   <v>       0.01450359       0.38469710       0.42372970 </v>
   <v>       0.02277605       0.39550853       0.47149224 </v>
   <v>       0.01943232       0.30636110      -0.40235671 </v>
   <v>       0.07137758       0.38222996      -0.44652895 </v>
   <v>       0.14114462       0.16108187       0.49934085 </v>
   <v>       0.02707813       0.13732354       0.49822195 </v>
   <v>       0.00227354       0.20836423      -0.40404411 </v>
   <v>      -0.06968962       0.20041927       0.49373806 </v>
   <v>       0.12752104       0.11982951       0.49931440 </v>
   <v>       0.07230510       0.10363847       0.49885950 </v>
   <v>       0.01080959       0.44825959       0.48780406 </v>
   <v>      -0.02690895       0.12006105       0.49817194 </v>
   <v>      -0.07219721       0.15704905       0.49601544 </v>
   <v>      -0.00815607       0.44820681       0.34589614 </v>
   <v>      -0.06732627       0.42451409       0.38543336 </v>
   <v>       0.02880371       0.46741269      -0.45360286 </v>
   <v>       0.15866165       0.07445410       0.49969596 </v>
   <v>      -0.04141719       0.45997934       0.37919832 </v>
   <v>      -0.02119428       0.48040116       0.44517032 </v>
   <v>       0.07205015       0.04848757      -0.49998729 </v>
   <v>      -0.04421068       0.06791505       0.49949577 </v>
   <v>       0.20208474       0.07228190       0.49930724 </v>
   <v>      -0.11720929       0.12633758       0.49731316 </v>
   <v>       0.12363248       0.02884923      -0.49901647 </v>
   <v>       0.03830825       0.02531986      -0.49949904 </v>
   <v>       0.01566128      -0.48281558      -0.43553724 </v>
   <v>      -0.06462067       0.49142913       0.35423711 </v>
   <v>      -0.09912938       0.07079953       0.49895560 </v>
   <v>      -0.15862910       0.13970719       0.49714692 </v>
   <v>      -0.03444552      -0.46976275       0.46332873 </v>
   <v>       0.06116659      -0.49257519      -0.34586883 </v>
   <v>      -0.01652464      -0.45071941      -0.47808189 </v>
   <v>       0.03635106      -0.46196441      -0.37003001 </v>
   <v>       0.13877389      -0.02542945      -0.49733791 </v>
   <v>      -0.03416313      -0.02375853      -0.49751202 </v>
   <v>      -0.13472739       0.02681340      -0.49942343 </v>
   <v>       0.06058224      -0.42543939      -0.37705792 </v>
   <v>       0.00336117      -0.45156629      -0.33557202 </v>
   <v>       0.21044441       0.00027502      -0.40011504 </v>
   <v>       0.19748278      -0.03664190      -0.49635934 </v>
   <v>      -0.19487166       0.06982389       0.40018599 </v>
   <v>       0.22933180      -0.02034733      -0.44206064 </v>
   <v>       0.04821073      -0.06656079      -0.49705982 </v>
   <v>      -0.02793306      -0.39792600      -0.46128181 </v>
   <v>       0.10311642      -0.06944151      -0.49622010 </v>
   <v>      -0.06787444      -0.04695789      -0.49727450 </v>
   <v>      -0.19352115       0.03772350      -0.49963099 </v>
   <v>      -0.11949476      -0.02740668      -0.49787731 </v>
   <v>      -0.21880326       0.06016748       0.44424531 </v>
   <v>      -0.02580387      -0.38966482      -0.41177935 </v>
   <v>      -0.06310648      -0.38039336       0.44819804 </v>
   <v>       0.22229074      -0.06398145       0.45067414 </v>
   <v>       0.19809891      -0.07679338       0.40811971 </v>
   <v>       0.28422526      -0.03076049      -0.44105507 </v>
   <v>      -0.06541667      -0.36603520       0.49997260 </v>
   <v>       0.30840475      -0.01763779      -0.39857216 </v>
   <v>      -0.10743555      -0.37312831      -0.48397813 </v>
   <v>       0.03090592      -0.11871347      -0.49551783 </v>
   <v>      -0.22528950       0.02492097      -0.44398228 </v>
   <v>      -0.27398172       0.06917953       0.44397207 </v>
   <v>       0.27716408      -0.07494210       0.45230463 </v>
   <v>      -0.06816008      -0.10211028      -0.49701312 </v>
   <v>       0.12112712      -0.12501389      -0.49329509 </v>
   <v>      -0.20629263       0.00773275      -0.39975677 </v>
   <v>       0.30892095      -0.05829996      -0.49376988 </v>
   <v>       0.42480228       0.06304200       0.38295794 </v>
   <v>      -0.29290729       0.08602508       0.39941267 </v>
   <v>      -0.15451685      -0.07303503      -0.49808259 </v>
   <v>      -0.02305903      -0.13586548      -0.49611324 </v>
   <v>       0.16247466      -0.13844081      -0.49099694 </v>
   <v>       0.38571647      -0.01745196       0.42552008 </v>
   <v>       0.07611874      -0.15573769      -0.49383206 </v>
   <v>       0.29558529      -0.09688691       0.41095459 </v>
   <v>      -0.28053757       0.03388442      -0.44457671 </v>
   <v>      -0.05360304      -0.30661775      -0.49755727 </v>
   <v>      -0.30583731       0.05603151       0.49935689 </v>
   <v>       0.39680726      -0.02427141       0.47352961 </v>
   <v>      -0.19793087      -0.07081200      -0.49913380 </v>
   <v>      -0.12334555      -0.11837733      -0.49698594 </v>
   <v>      -0.02189873      -0.30475239      -0.39651375 </v>
   <v>       0.36859313      -0.06814445      -0.49331911 </v>
   <v>       0.46057716       0.03738160       0.37791825 </v>
   <v>      -0.08193740      -0.29347631       0.40179994 </v>
   <v>      -0.03196363      -0.28150111      -0.44101242 </v>
   <v>      -0.06556409      -0.27472702       0.44674272 </v>
   <v>       0.44908004       0.00299880       0.34630269 </v>
   <v>      -0.30375508       0.02279280      -0.40042337 </v>
   <v>       0.38391041      -0.07009642      -0.44196617 </v>
   <v>       0.44952520      -0.01141461       0.48907783 </v>
   <v>       0.49174797       0.06011261       0.35169768 </v>
   <v>       0.07353630      -0.19913906      -0.49299372 </v>
   <v>      -0.37280446       0.10953627      -0.48927302 </v>
   <v>       0.48131901       0.01953139       0.44479738 </v>
   <v>      -0.03401549      -0.19463164      -0.49620555 </v>
   <v>      -0.13681779      -0.15967938      -0.49632388 </v>
   <v>      -0.36544382       0.06711742       0.49688687 </v>
   <v>       0.37774042      -0.10710613       0.48274905 </v>
   <v>      -0.06476771      -0.19570778       0.40295851 </v>
   <v>      -0.38006709       0.06298435       0.44538987 </v>
   <v>       0.46903216      -0.02748641      -0.45163325 </v>
   <v>      -0.00545232      -0.20759855      -0.39570885 </v>
   <v>      -0.05599513      -0.21968290       0.44724982 </v>
   <v>      -0.02234083      -0.22641886      -0.44023089 </v>
   <v>      -0.46891726       0.03387996       0.46217693 </v>
   <v>      -0.38860837       0.03048733      -0.41266585 </v>
   <v>      -0.39688564       0.03073978      -0.46224295 </v>
   <v>      -0.48120824      -0.01332775      -0.43443270 </v>
   <v>      -0.44957283       0.01803178      -0.47846449 </v>
   <v>      -0.49010701      -0.05672791      -0.34310918 </v>
   <v>      -0.45000808       0.00193782      -0.33508895 </v>
   <v>      -0.45989086      -0.03202491      -0.36824262 </v>
   <v>      -0.42295518      -0.05577665      -0.37446474 </v>
  </varray>
 </structure>
 <varray name="primitive_index" >
  <v type="int" >        1 </v>
  <v type="int" >       80 </v>
  <v type="int" >        2 </v>
  <v type="int" >       38 </v>
  <v type="int" >       79 </v>
  <v type="int" >       37 </v>
  <v type="int" >       35 </v>
  <v type="int" >       52 </v>
  <v type="int" >       82 </v>
  <v type="int" >       36 </v>
  <v type="int" >       92 </v>
  <v type="int" >       64 </v>
  <v type="int" >      109 </v>
  <v type="int" >      112 </v>
  <v type="int" >       96 </v>
  <v type="int" >       34 </v>
  <v type="int" >      110 </v>
  <v type="int" >      105 </v>
  <v type="int" >       16 </v>
  <v type="int" >       17 </v>
  <v type="int" >       14 </v>
  <v type="int" >       31 </v>
  <v type="int" >       32 </v>
  <v type="int" >       89 </v>
  <v type="int" >       90 </v>
  <v type="int" >       71 </v>
  <v type="int" >       15 </v>
  <v type="int" >       12 </v>
  <v type="int" >       13 </v>
  <v type="int" >       65 </v>
  <v type="int" >       68 </v>
  <v type="int" >       95 </v>
  <v type="int" >       33 </v>
  <v type="int" >       18 </v>
  <v type="int" >       97 </v>
  <v type="int" >       59 </v>
  <v type="int" >       91 </v>
  <v type="int" >       30 </v>
  <v type="int" >      106 </v>
  <v type="int" >       63 </v>
  <v type="int" >      120 </v>
  <v type="int" >       58 </v>
  <v type="int" >       60 </v>
  <v type="int" >       19 </v>
  <v type="int" >       98 </v>
  <v type="int" >       29 </v>
  <v type="int" >      121 </v>
  <v type="int" >      119 </v>
  <v type="int" >       94 </v>
  <v type="int" >       47 </v>
  <v type="int" >       77 </v>
  <v type="int" >       48 </v>
  <v type="int" >       66 </v>
  <v type="int" >       72 </v>
  <v type="int" >       20 </v>
  <v type="int" >       67 </v>
  <v type="int" >       39 </v>
  <v type="int" >       26 </v>
  <v type="int" >        4 </v>
  <v type="int" >      122 </v>
  <v type="int" >       84 </v>
  <v type="int" >        7 </v>
  <v type="int" >       74 </v>
  <v type="int" >       49 </v>
  <v type="int" >       54 </v>
  <v type="int" >       93 </v>
  <v type="int" >      114 </v>
  <v type="int" >       21 </v>
  <v type="int" >       40 </v>
  <v type="int" >        3 </v>
  <v type="int" >        8 </v>
  <v type="int" >       25 </v>
  <v type="int" >       23 </v>
  <v type="int" >      107 </v>
  <v type="int" >       50 </v>
  <v type="int" >       86 </v>
  <v type="int" >       78 </v>
  <v type="int" >       27 </v>
  <v type="int" >       24 </v>
  <v type="int" >       99 </v>
  <v type="int" >       88 </v>
  <v type="int" >       22 </v>
  <v type="int" >       73 </v>
  <v type="int" >       41 </v>
  <v type="int" >       44 </v>
  <v type="int" >       42 </v>
  <v type="int" >       62 </v>
  <v type="int" >      104 </v>
  <v type="int" >       28 </v>
  <v type="int" >      102 </v>
  <v type="int" >       53 </v>
  <v type="int" >        9 </v>
  <v type="int" >       76 </v>
  <v type="int" >       45 </v>
  <v type="int" >        6 </v>
  <v type="int" >       85 </v>
  <v type="int" >      108 </v>
  <v type="int" >      113 </v>
  <v type="int" >       11 </v>
  <v type="int" >       87 </v>
  <v type="int" >      100 </v>
  <v type="int" >      111 </v>
  <v type="int" >       10 </v>
  <v type="int" >       43 </v>
  <v type="int" >      103 </v>
  <v type="int" >       51 </v>
  <v type="int" >       83 </v>
  <v type="int" >       75 </v>
  <v type="int" >       81 </v>
  <v type="int" >       69 </v>
  <v type="int" >      101 </v>
  <v type="int" >        5 </v>
  <v type="int" >       46 </v>
  <v type="int" >       61 </v>
  <v type="int" >      118 </v>
  <v type="int" >       70 </v>
  <v type="int" >       56 </v>
  <v type="int" >       55 </v>
  <v type="int" >      116 </v>
  <v type="int" >      115 </v>
  <v type="int" >       57 </v>
  <v type="int" >      117 </v>
 </varray>
 <kpoints>
  <generation param="listgenerated">
   <i name="divisions" type="int">      20 </i>
   <v>       0.00000000       0.00000000       0.00000000 </v>
   <v>       0.50000000       0.00000000       0.00000000 </v>
   <v>       0.50000000       0.50000000       0.00000000 </v>
   <v>       0.00000000       0.00000000       0.00000000 </v>
  </generation>
  <varray name="kpointlist" >
   <v>       0.00000000       0.00000000       0.00000000 </v>
   <v>       0.02631579       0.00000000       0.00000000 </v>
   <v>       0.05263158       0.00000000       0.00000000 </v>
   <v>       0.07894737       0.00000000       0.00000000 </v>
   <v>       0.10526316       0.00000000       0.00000000 </v>
   <v>       0.13157895       0.00000000       0.00000000 </v>
   <v>       0.15789474       0.00000000       0.00000000 </v>
   <v>       0.18421053       0.00000000       0.00000000 </v>
   <v>       0.21052632       0.00000000       0.00000000 </v>
   <v>       0.23684211       0.00000000       0.00000000 </v>
   <v>       0.26315789       0.00000000       0.00000000 </v>
   <v>       0.28947368       0.00000000       0.00000000 </v>
   <v>       0.31578947       0.00000000       0.00000000 </v>
   <v>       0.34210526       0.00000000       0.00000000 </v>
   <v>       0.36842105       0.00000000       0.00000000 </v>
   <v>       0.39473684       0.00000000       0.00000000 </v>
   <v>       0.42105263       0.00000000       0.00000000 </v>
   <v>       0.44736842       0.00000000       0.00000000 </v>
   <v>       0.47368421       0.00000000       0.00000000 </v>
   <v>       0.50000000       0.00000000       0.00000000 </v>
   <v>       0.50000000       0.00000000       0.00000000 </v>
   <v>       0.50000000       0.02631579       0.00000000 </v>
   <v>       0.50000000       0.05263158       0.00000000 </v>
   <v>       0.50000000       0.07894737       0.00000000 </v>
   <v>       0.50000000       0.10526316       0.00000000 </v>
   <v>       0.50000000       0.13157895       0.00000000 </v>
   <v>       0.50000000       0.15789474       0.00000000 </v>
   <v>       0.50000000       0.18421053       0.00000000 </v>
   <v>       0.50000000       0.21052632       0.00000000 </v>
   <v>       0.50000000       0.23684211       0.00000000 </v>
   <v>       0.50000000       0.26315789       0.00000000 </v>
   <v>       0.50000000       0.28947368       0.00000000 </v>
   <v>       0.50000000       0.31578947       0.00000000 </v>
   <v>       0.50000000       0.34210526       0.00000000 </v>
   <v>       0.50000000       0.36842105       0.00000000 </v>
   <v>       0.50000000       0.39473684       0.00000000 </v>
   <v>       0.50000000       0.42105263       0.00000000 </v>
   <v>       0.50000000       0.44736842       0.00000000 </v>
   <v>       0.50000000       0.47368421       0.00000000 </v>
   <v>       0.50000000       0.50000000       0.00000000 </v>
   <v>       0.50000000       0.50000000       0.00000000 </v>
   <v>       0.47368421       0.47368421       0.00000000 </v>
   <v>       0.44736842       0.44736842       0.00000000 </v>
   <v>       0.42105263       0.42105263       0.00000000 </v>
   <v>       0.39473684       0.39473684       0.00000000 </v>
   <v>       0.36842105       0.36842105       0.00000000 </v>
   <v>       0.34210526       0.34210526       0.00000000 </v>
   <v>       0.31578947       0.31578947       0.00000000 </v>
   <v>       0.28947368       0.28947368       0.00000000 </v>
   <v>       0.26315789       0.26315789       0.00000000 </v>
   <v>       0.23684211       0.23684211       0.00000000 </v>
   <v>       0.21052632       0.21052632       0.00000000 </v>
   <v>       0.18421053       0.18421053       0.00000000 </v>
   <v>       0.15789474       0.15789474       0.00000000 </v>
   <v>       0.13157895       0.13157895       0.00000000 </v>
   <v>       0.10526316       0.10526316       0.00000000 </v>
   <v>       0.07894737       0.07894737       0.00000000 </v>
   <v>       0.05263158       0.05263158       0.00000000 </v>
   <v>       0.02631579       0.02631579       0.00000000 </v>
   <v>       0.00000000       0.00000000       0.00000000 </v>
  </varray>
  <varray name="weights" >
   <v>       0.01666667 </v>
   <v>       0.01666667 </v>
   <v>       0.01666667 </v>
   <v>       0.01666667 </v>
   <v>       0.01666667 </v>
   <v>       0.01666667 </v>
   <v>       0.01666667 </v>
   <v>       0.01666667 </v>
   <v>       0.01666667 </v>
   <v>       0.01666667 </v>
   <v>       0.01666667 </v>
   <v>       0.01666667 </v>
   <v>       0.01666667 </v>
   <v>       0.01666667 </v>
   <v>       0.01666667 </v>
   <v>       0.01666667 </v>
   <v>       0.01666667 </v>
   <v>       0.01666667 </v>
   <v>       0.01666667 </v>
   <v>       0.01666667 </v>
   <v>       0.01666667 </v>
   <v>       0.01666667 </v>
   <v>       0.01666667 </v>
   <v>       0.01666667 </v>
   <v>       0.01666667 </v>
   <v>       0.01666667 </v>
   <v>       0.01666667 </v>
   <v>       0.01666667 </v>
   <v>       0.01666667 </v>
   <v>       0.01666667 </v>
   <v>       0.01666667 </v>
   <v>       0.01666667 </v>
   <v>       0.01666667 </v>
   <v>       0.01666667 </v>
   <v>       0.01666667 </v>
   <v>       0.01666667 </v>
   <v>       0.01666667 </v>
   <v>       0.01666667 </v>
   <v>       0.01666667 </v>
   <v>       0.01666667 </v>
   <v>       0.01666667 </v>
   <v>       0.01666667 </v>
   <v>       0.01666667 </v>
   <v>       0.01666667 </v>
   <v>       0.01666667 </v>
   <v>       0.01666667 </v>
   <v>       0.01666667 </v>
   <v>       0.01666667 </v>
   <v>       0.01666667 </v>
   <v>       0.01666667 </v>
   <v>       0.01666667 </v>
   <v>       0.01666667 </v>
   <v>       0.01666667 </v>
   <v>       0.01666667 </v>
   <v>       0.01666667 </v>
   <v>       0.01666667 </v>
   <v>       0.01666667 </v>
   <v>       0.01666667 </v>
   <v>       0.01666667 </v>
   <v>       0.01666667 </v>
  </varray>
 </kpoints>
 <parameters>
  <separator name="general" >
   <i type="string" name="SYSTEM">Simulation for cell shape cell volume r</i>
   <i type="logical" name="LCOMPAT"> F  </i>
  </separator>
  <separator name="electronic" >
   <i type="string" name="PREC">high</i>
   <i name="ENMAX">    500.00000000</i>
   <i name="ENAUG">    644.87300000</i>
   <i name="EDIFF">      0.00001000</i>
   <i type="int" name="IALGO">    38</i>
   <i type="int" name="IWAVPR">    10</i>
   <i type="int" name="NBANDS">   240</i>
   <i name="NELECT">    350.00000000</i>
   <i type="int" name="TURBO">     0</i>
   <i type="int" name="IRESTART">     0</i>
   <i type="int" name="NREBOOT">     0</i>
   <i type="int" name="NMIN">     0</i>
   <i name="EREF">      0.00000000</i>
   <separator name="electronic smearing" >
    <i type="int" name="ISMEAR">     0</i>
    <i name="SIGMA">      0.01000000</i>
    <i name="KSPACING">      0.50000000</i>
    <i type="logical" name="KGAMMA"> T  </i>
   </separator>
   <separator name="electronic projectors" >
    <i type="logical" name="LREAL"> T  </i>
    <v name="ROPT">     -0.00040000     -0.00040000     -0.00040000</v>
    <i type="int" name="LMAXPAW">  -100</i>
    <i type="int" name="LMAXMIX">     2</i>
    <i type="logical" name="NLSPLINE"> F  </i>
   </separator>
   <separator name="electronic startup" >
    <i type="int" name="ISTART">     1</i>
    <i type="int" name="ICHARG">    11</i>
    <i type="int" name="INIWAV">     1</i>
   </separator>
   <separator name="electronic spin" >
    <i type="int" name="ISPIN">     1</i>
    <i type="logical" name="LNONCOLLINEAR"> F  </i>
    <v name="MAGMOM">      1.00000000      1.00000000      1.00000000      1.00000000      1.00000000      1.00000000      1.00000000      1.00000000      1.00000000      1.00000000      1.00000000      1.00000000      1.00000000      1.00000000      1.00000000      1.00000000      1.00000000      1.00000000      1.00000000      1.00000000
      1.00000000      1.00000000      1.00000000      1.00000000      1.00000000      1.00000000      1.00000000      1.00000000      1.00000000      1.00000000      1.00000000      1.00000000      1.00000000      1.00000000      1.00000000      1.00000000      1.00000000      1.00000000      1.00000000      1.00000000
      1.00000000      1.00000000      1.00000000      1.00000000      1.00000000      1.00000000      1.00000000      1.00000000      1.00000000      1.00000000      1.00000000      1.00000000      1.00000000      1.00000000      1.00000000      1.00000000      1.00000000      1.00000000      1.00000000      1.00000000
      1.00000000      1.00000000      1.00000000      1.00000000      1.00000000      1.00000000      1.00000000      1.00000000      1.00000000      1.00000000      1.00000000      1.00000000      1.00000000      1.00000000      1.00000000      1.00000000      1.00000000      1.00000000      1.00000000      1.00000000
      1.00000000      1.00000000      1.00000000      1.00000000      1.00000000      1.00000000      1.00000000      1.00000000      1.00000000      1.00000000      1.00000000      1.00000000      1.00000000      1.00000000      1.00000000      1.00000000      1.00000000      1.00000000      1.00000000      1.00000000
      1.00000000      1.00000000      1.00000000      1.00000000      1.00000000      1.00000000      1.00000000      1.00000000      1.00000000      1.00000000      1.00000000      1.00000000      1.00000000      1.00000000      1.00000000      1.00000000      1.00000000      1.00000000      1.00000000      1.00000000
      1.00000000      1.00000000</v>
    <i name="NUPDOWN">     -1.00000000</i>
    <i type="logical" name="LSORBIT"> F  </i>
    <v name="SAXIS">      0.00000000      0.00000000      1.00000000</v>
    <i type="logical" name="LSPIRAL"> F  </i>
    <v name="QSPIRAL">      0.00000000      0.00000000      0.00000000</v>
    <i type="logical" name="LZEROZ"> F  </i>
   </separator>
   <separator name="electronic exchange-correlation" >
    <i type="logical" name="LASPH"> F  </i>
    <i type="logical" name="LMETAGGA"> F  </i>
   </separator>
   <separator name="electronic convergence" >
    <i type="int" name="NELM">   200</i>
    <i type="int" name="NELMDL">     0</i>
    <i type="int" name="NELMIN">     2</i>
    <i name="ENINI">    500.00000000</i>
    <separator name="electronic convergence detail" >
     <i type="logical" name="LDIAG"> T  </i>
     <i type="logical" name="LSUBROT"> F  </i>
     <i name="WEIMIN">      0.00000000</i>
     <i name="EBREAK">      0.00000001</i>
     <i name="DEPER">      0.30000000</i>
     <i type="int" name="NRMM">     4</i>
     <i name="TIME">      0.40000000</i>
    </separator>
   </separator>
   <separator name="electronic mixer" >
    <i name="AMIX">      0.40000000</i>
    <i name="BMIX">      1.00000000</i>
    <i name="AMIN">      0.10000000</i>
    <i name="AMIX_MAG">      1.60000000</i>
    <i name="BMIX_MAG">      1.00000000</i>
    <separator name="electronic mixer details" >
     <i type="int" name="IMIX">     4</i>
     <i type="logical" name="MIXFIRST"> F  </i>
     <i type="int" name="MAXMIX">   -45</i>
     <i name="WC">    100.00000000</i>
     <i type="int" name="INIMIX">     1</i>
     <i type="int" name="MIXPRE">     1</i>
     <i type="int" name="MREMOVE">     5</i>
    </separator>
   </separator>
   <separator name="electronic dipolcorrection" >
    <i type="logical" name="LDIPOL"> F  </i>
    <i type="logical" name="LMONO"> F  </i>
    <i type="int" name="IDIPOL">     0</i>
    <i name="EPSILON">      1.00000000</i>
    <v name="DIPOL">   -100.00000000   -100.00000000   -100.00000000</v>
    <i name="EFIELD">      0.00000000</i>
   </separator>
  </separator>
  <separator name="grids" >
   <i type="int" name="NGX">   192</i>
   <i type="int" name="NGY">   192</i>
   <i type="int" name="NGZ">   150</i>
   <i type="int" name="NGXF">   280</i>
   <i type="int" name="NGYF">   280</i>
   <i type="int" name="NGZF">   224</i>
   <i type="logical" name="ADDGRID"> F  </i>
  </separator>
  <separator name="ionic" >
   <i type="int" name="NSW">     0</i>
   <i type="int" name="IBRION">    -1</i>
   <i type="int" name="MDALGO">     0</i>
   <i type="int" name="ISIF">     2</i>
   <i name="PSTRESS">      0.00000000</i>
   <i name="EDIFFG">     -0.01000000</i>
   <i type="int" name="NFREE">     0</i>
   <i name="POTIM">      0.30000000</i>
   <i name="SMASS">     -3.00000000</i>
   <i name="SCALEE">      1.00000000</i>
  </separator>
  <separator name="ionic md" >
   <i name="TEBEG">      0.00010000</i>
   <i name="TEEND">      0.00010000</i>
   <i type="int" name="NBLOCK">     1</i>
   <i type="int" name="KBLOCK">     1</i>
   <i type="int" name="NPACO">   256</i>
   <i name="APACO">     16.00000000</i>
  </separator>
  <separator name="symmetry" >
   <i type="int" name="ISYM">     2</i>
   <i name="SYMPREC">      0.00001000</i>
  </separator>
  <separator name="dos" >
   <i type="int" name="LORBIT">     0</i>
   <v name="RWIGS">     -1.00000000     -1.00000000     -1.00000000</v>
   <i type="int" name="NEDOS">   301</i>
   <i name="EMIN">     10.00000000</i>
   <i name="EMAX">    -10.00000000</i>
   <i name="EFERMI">      0.00000000</i>
  </separator>
  <separator name="writing" >
   <i type="int" name="NWRITE">     0</i>
   <i type="logical" name="LWAVE"> F  </i>
   <i type="logical" name="LDOWNSAMPLE"> F  </i>
   <i type="logical" name="LCHARG"> F  </i>
   <i type="logical" name="LPARD"> F  </i>
   <i type="logical" name="LVTOT"> F  </i>
   <i type="logical" name="LVHAR"> F  </i>
   <i type="logical" name="LELF"> F  </i>
   <i type="logical" name="LOPTICS"> F  </i>
   <v name="STM">      0.00000000      0.00000000      0.00000000      0.00000000      0.00000000      0.00000000      0.00000000</v>
  </separator>
  <separator name="performance" >
   <i type="int" name="NPAR">    16</i>
   <i type="int" name="NSIM">     4</i>
   <i type="int" name="NBLK">    -1</i>
   <i type="logical" name="LPLANE"> T  </i>
   <i type="logical" name="LSCALAPACK"> T  </i>
   <i type="logical" name="LSCAAWARE"> F  </i>
   <i type="logical" name="LSCALU"> F  </i>
   <i type="logical" name="LASYNC"> F  </i>
   <i type="logical" name="LORBITALREAL"> F  </i>
  </separator>
  <separator name="miscellaneous" >
   <i type="int" name="IDIOT">     3</i>
   <i type="int" name="ISPECIAL">     0</i>
   <i type="logical" name="LMUSIC"> F  </i>
   <v name="POMASS">     12.01100000     14.00100000      1.00000000</v>
   <v name="DARWINR">      0.00000000      0.00000000      0.00000000</v>
   <v name="DARWINV">      1.00000000      1.00000000      1.00000000</v>
   <i type="logical" name="LCORR"> T  </i>
  </separator>
  <i type="logical" name="GGA_COMPAT"> T  </i>
  <i type="logical" name="LBERRY"> F  </i>
  <i type="int" name="ICORELEVEL">     0</i>
  <i type="logical" name="LDAU"> F  </i>
  <i type="int" name="I_CONSTRAINED_M">     0</i>
  <separator name="electronic exchange-correlation" >
   <i type="string" name="GGA">PE</i>
   <i type="int" name="VOSKOWN">     0</i>
   <i type="logical" name="LHFCALC"> F  </i>
   <i type="string" name="PRECFOCK"></i>
   <i type="logical" name="LSYMGRAD"> F  </i>
   <i type="logical" name="LHFONE"> F  </i>
   <i type="logical" name="LRHFCALC"> F  </i>
   <i type="logical" name="LTHOMAS"> F  </i>
   <i type="logical" name="LMODELHF"> F  </i>
   <i name="ENCUT4O">     -1.00000000</i>
   <i type="int" name="EXXOEP">     0</i>
   <i type="int" name="FOURORBIT">     0</i>
   <i name="AEXX">      0.00000000</i>
   <i name="HFALPHA">      0.00000000</i>
   <i name="MCALPHA">      0.00000000</i>
   <i name="ALDAX">      1.00000000</i>
   <i name="AGGAX">      1.00000000</i>
   <i name="ALDAC">      1.00000000</i>
   <i name="AGGAC">      1.00000000</i>
   <i type="int" name="NKREDX">     1</i>
   <i type="int" name="NKREDY">     1</i>
   <i type="int" name="NKREDZ">     1</i>
   <i type="logical" name="SHIFTRED"> F  </i>
   <i type="logical" name="ODDONLY"> F  </i>
   <i type="logical" name="EVENONLY"> F  </i>
   <i type="int" name="LMAXFOCK">     0</i>
   <i type="int" name="NMAXFOCKAE">     0</i>
   <i type="logical" name="LFOCKAEDFT"> F  </i>
   <i name="HFSCREEN">      0.00000000</i>
   <i name="HFSCREENC">      0.00000000</i>
   <i type="int" name="NBANDSGWLOW">     0</i>
  </separator>
  <separator name="vdW DFT" >
   <i type="logical" name="LUSE_VDW"> F  </i>
   <i name="Zab_VDW">     -0.84910000</i>
   <i name="PARAM1">      0.12340000</i>
   <i name="PARAM2">      1.00000000</i>
   <i name="PARAM3">      0.00000000</i>
  </separator>
  <separator name="model GW" >
   <i type="int" name="MODEL_GW">     0</i>
   <i name="MODEL_EPS0">     61.22228981</i>
   <i name="MODEL_ALPHA">      1.00000000</i>
  </separator>
  <separator name="linear response parameters" >
   <i type="logical" name="LEPSILON"> F  </i>
   <i type="logical" name="LRPA"> F  </i>
   <i type="logical" name="LNABLA"> F  </i>
   <i type="logical" name="LVEL"> F  </i>
   <i type="int" name="KINTER">     0</i>
   <i name="CSHIFT">      0.10000000</i>
   <i name="OMEGAMAX">     -1.00000000</i>
   <i name="DEG_THRESHOLD">      0.00200000</i>
   <i name="RTIME">     -0.10000000</i>
   <i name="WPLASMAI">      0.00000000</i>
   <v name="DFIELD">      0.00000000      0.00000000      0.00000000</v>
   <v name="WPLASMA">      0.00000000      0.00000000      0.00000000      0.00000000      0.00000000      0.00000000      0.00000000      0.00000000      0.00000000</v>
  </separator>
  <separator name="orbital magnetization" >
   <i type="logical" name="NUCIND"> F  </i>
   <v name="MAGPOS">      0.00000000      0.00000000      0.00000000</v>
   <i type="logical" name="LNICSALL"> T  </i>
   <i type="logical" name="ORBITALMAG"> F  </i>
   <i type="logical" name="LMAGBLOCH"> F  </i>
   <i type="logical" name="LCHIMAG"> F  </i>
   <i type="logical" name="LGAUGE"> T  </i>
   <i type="int" name="MAGATOM">     0</i>
   <v name="MAGDIPOL">      0.00000000      0.00000000      0.00000000</v>
   <v name="AVECCONST">      0.00000000      0.00000000      0.00000000</v>
  </separator>
  <separator name="response functions" >
   <i type="logical" name="LADDER"> F  </i>
   <i type="logical" name="LRPAFORCE"> F  </i>
   <i type="logical" name="LFXC"> F  </i>
   <i type="logical" name="LHARTREE"> T  </i>
   <i type="int" name="IBSE">     0</i>
   <v type="int" name="KPOINT">    -1     0     0     0</v>
   <i type="logical" name="LTCTE"> F  </i>
   <i type="logical" name="LTETE"> F  </i>
   <i type="logical" name="LTRIPLET"> F  </i>
   <i type="logical" name="LFXCEPS"> F  </i>
   <i type="logical" name="LFXHEG"> F  </i>
   <i type="int" name="NATURALO">     2</i>
   <i type="logical" name="L2ORDER"> F  </i>
   <i type="logical" name="LMP2LT"> F  </i>
   <i type="logical" name="LUSEW"> F  </i>
   <i name="ENCUTGW">     -2.00000000</i>
   <i name="ENCUTGWSOFT">     -2.00000000</i>
   <i name="ENCUTLF">     -1.00000000</i>
   <i type="int" name="LMAXMP2">    -1</i>
   <i name="SCISSOR">      0.00000000</i>
   <i type="int" name="NOMEGA">     0</i>
   <i type="int" name="NOMEGAR">     0</i>
   <i type="int" name="NBANDSGW">    -1</i>
   <i type="int" name="NBANDSO">    -1</i>
   <i type="int" name="NBANDSV">    -1</i>
   <i type="int" name="NELM">   200</i>
   <i type="int" name="NELMHF">     1</i>
   <i type="int" name="DIM">     3</i>
   <i type="int" name="ANTIRES">     0</i>
   <i name="OMEGAMAX">    -30.00000000</i>
   <i name="OMEGAMIN">    -30.00000000</i>
   <i name="OMEGATL">   -200.00000000</i>
   <i type="int" name="OMEGAGRID">   140</i>
   <i name="CSHIFT">     -0.10000000</i>
   <i type="logical" name="SELFENERGY"> F  </i>
   <i type="logical" name="LSPECTRAL"> F  </i>
   <i type="logical" name="LSPECTRALGW"> F  </i>
   <i type="logical" name="LSINGLES"> F  </i>
   <i type="logical" name="LFERMIGW"> F  </i>
   <i type="logical" name="ODDONLYGW"> F  </i>
   <i type="logical" name="EVENONLYGW"> F  </i>
   <i type="int" name="NKREDLFX">     1</i>
   <i type="int" name="NKREDLFY">     1</i>
   <i type="int" name="NKREDLFZ">     1</i>
   <i type="int" name="MAXMEM">  2800</i>
   <i type="int" name="TELESCOPE">     0</i>
   <i type="int" name="TAUPAR">     1</i>
   <i type="int" name="OMEGAPAR">    -1</i>
   <i name="LAMBDA">      1.00000000</i>
  </separator>
  <separator name="External order field" >
   <i name="OFIELD_KAPPA">      0.00000000</i>
   <v name="OFIELD_K">      0.00000000      0.00000000      0.00000000</v>
   <i name="OFIELD_Q6_NEAR">      0.00000000</i>
   <i name="OFIELD_Q6_FAR">      0.00000000</i>
   <i name="OFIELD_A">      0.00000000</i>
  </separator>
  <separator name="solvation model" >
   <i type="logical" name="LSOL"> F  </i>
  </separator>
 </parameters>
 <atominfo>
  <atoms>     122 </atoms>
  <types>       3 </types>
  <array name="atoms" >
   <dimension dim="1">ion</dimension>
   <field type="string">element</field>
   <field type="int">atomtype</field>
   <set>
    <rc><c>C </c><c>   1</c></rc>
    <rc><c>C </c><c>   1</c></rc>
    <rc><c>C </c><c>   1</c></rc>
    <rc><c>C </c><c>   1</c></rc>
    <rc><c>C </c><c>   1</c></rc>
    <rc><c>C </c><c>   1</c></rc>
    <rc><c>C </c><c>   1</c></rc>
    <rc><c>C </c><c>   1</c></rc>
    <rc><c>C </c><c>   1</c></rc>
    <rc><c>C </c><c>   1</c></rc>
    <rc><c>C </c><c>   1</c></rc>
    <rc><c>C </c><c>   1</c></rc>
    <rc><c>C </c><c>   1</c></rc>
    <rc><c>C </c><c>   1</c></rc>
    <rc><c>C </c><c>   1</c></rc>
    <rc><c>C </c><c>   1</c></rc>
    <rc><c>C </c><c>   1</c></rc>
    <rc><c>C </c><c>   1</c></rc>
    <rc><c>C </c><c>   1</c></rc>
    <rc><c>C </c><c>   1</c></rc>
    <rc><c>C </c><c>   1</c></rc>
    <rc><c>C </c><c>   1</c></rc>
    <rc><c>C </c><c>   1</c></rc>
    <rc><c>C </c><c>   1</c></rc>
    <rc><c>C </c><c>   1</c></rc>
    <rc><c>C </c><c>   1</c></rc>
    <rc><c>C </c><c>   1</c></rc>
    <rc><c>C </c><c>   1</c></rc>
    <rc><c>C </c><c>   1</c></rc>
    <rc><c>C </c><c>   1</c></rc>
    <rc><c>C </c><c>   1</c></rc>
    <rc><c>C </c><c>   1</c></rc>
    <rc><c>C </c><c>   1</c></rc>
    <rc><c>C </c><c>   1</c></rc>
    <rc><c>C </c><c>   1</c></rc>
    <rc><c>C </c><c>   1</c></rc>
    <rc><c>C </c><c>   1</c></rc>
    <rc><c>C </c><c>   1</c></rc>
    <rc><c>C </c><c>   1</c></rc>
    <rc><c>C </c><c>   1</c></rc>
    <rc><c>C </c><c>   1</c></rc>
    <rc><c>C </c><c>   1</c></rc>
    <rc><c>C </c><c>   1</c></rc>
    <rc><c>C </c><c>   1</c></rc>
    <rc><c>C </c><c>   1</c></rc>
    <rc><c>C </c><c>   1</c></rc>
    <rc><c>C </c><c>   1</c></rc>
    <rc><c>C </c><c>   1</c></rc>
    <rc><c>C </c><c>   1</c></rc>
    <rc><c>C </c><c>   1</c></rc>
    <rc><c>C </c><c>   1</c></rc>
    <rc><c>C </c><c>   1</c></rc>
    <rc><c>C </c><c>   1</c></rc>
    <rc><c>C </c><c>   1</c></rc>
    <rc><c>C </c><c>   1</c></rc>
    <rc><c>C </c><c>   1</c></rc>
    <rc><c>C </c><c>   1</c></rc>
    <rc><c>C </c><c>   1</c></rc>
    <rc><c>C </c><c>   1</c></rc>
    <rc><c>C </c><c>   1</c></rc>
    <rc><c>N </c><c>   2</c></rc>
    <rc><c>N </c><c>   2</c></rc>
    <rc><c>N </c><c>   2</c></rc>
    <rc><c>N </c><c>   2</c></rc>
    <rc><c>N </c><c>   2</c></rc>
    <rc><c>N </c><c>   2</c></rc>
    <rc><c>N </c><c>   2</c></rc>
    <rc><c>N </c><c>   2</c></rc>
    <rc><c>N </c><c>   2</c></rc>
    <rc><c>N </c><c>   2</c></rc>
    <rc><c>N </c><c>   2</c></rc>
    <rc><c>N </c><c>   2</c></rc>
    <rc><c>H </c><c>   3</c></rc>
    <rc><c>H </c><c>   3</c></rc>
    <rc><c>H </c><c>   3</c></rc>
    <rc><c>H </c><c>   3</c></rc>
    <rc><c>H </c><c>   3</c></rc>
    <rc><c>H </c><c>   3</c></rc>
    <rc><c>H </c><c>   3</c></rc>
    <rc><c>H </c><c>   3</c></rc>
    <rc><c>H </c><c>   3</c></rc>
    <rc><c>H </c><c>   3</c></rc>
    <rc><c>H </c><c>   3</c></rc>
    <rc><c>H </c><c>   3</c></rc>
    <rc><c>H </c><c>   3</c></rc>
    <rc><c>H </c><c>   3</c></rc>
    <rc><c>H </c><c>   3</c></rc>
    <rc><c>H </c><c>   3</c></rc>
    <rc><c>H </c><c>   3</c></rc>
    <rc><c>H </c><c>   3</c></rc>
    <rc><c>H </c><c>   3</c></rc>
    <rc><c>H </c><c>   3</c></rc>
    <rc><c>H </c><c>   3</c></rc>
    <rc><c>H </c><c>   3</c></rc>
    <rc><c>H </c><c>   3</c></rc>
    <rc><c>H </c><c>   3</c></rc>
    <rc><c>H </c><c>   3</c></rc>
    <rc><c>H </c><c>   3</c></rc>
    <rc><c>H </c><c>   3</c></rc>
    <rc><c>H </c><c>   3</c></rc>
    <rc><c>H </c><c>   3</c></rc>
    <rc><c>H </c><c>   3</c></rc>
    <rc><c>H </c><c>   3</c></rc>
    <rc><c>H </c><c>   3</c></rc>
    <rc><c>H </c><c>   3</c></rc>
    <rc><c>H </c><c>   3</c></rc>
    <rc><c>H </c><c>   3</c></rc>
    <rc><c>H </c><c>   3</c></rc>
    <rc><c>H </c><c>   3</c></rc>
    <rc><c>H </c><c>   3</c></rc>
    <rc><c>H </c><c>   3</c></rc>
    <rc><c>H </c><c>   3</c></rc>
    <rc><c>H </c><c>   3</c></rc>
    <rc><c>H </c><c>   3</c></rc>
    <rc><c>H </c><c>   3</c></rc>
    <rc><c>H </c><c>   3</c></rc>
    <rc><c>H </c><c>   3</c></rc>
    <rc><c>H </c><c>   3</c></rc>
    <rc><c>H </c><c>   3</c></rc>
    <rc><c>H </c><c>   3</c></rc>
    <rc><c>H </c><c>   3</c></rc>
    <rc><c>H </c><c>   3</c></rc>
   </set>
  </array>
  <array name="atomtypes" >
   <dimension dim="1">type</dimension>
   <field type="int">atomspertype</field>
   <field type="string">element</field>
   <field>mass</field>
   <field>valence</field>
   <field type="string">pseudopotential</field>
   <set>
    <rc><c>  60</c><c>C </c><c>     12.01100000</c><c>      4.00000000</c><c>  PAW_PBE C 08Apr2002                   </c></rc>
    <rc><c>  12</c><c>N </c><c>     14.00100000</c><c>      5.00000000</c><c>  PAW_PBE N 08Apr2002                   </c></rc>
    <rc><c>  50</c><c>H </c><c>      1.00000000</c><c>      1.00000000</c><c>  PAW_PBE H 15Jun2001                   </c></rc>
   </set>
  </array>
 </atominfo>
 <structure name="initialpos" >
  <crystal>
   <varray name="basis" >
    <v>      24.93585635       0.00458111       0.00000000 </v>
    <v>      -0.01224527      24.96110613       0.00000000 </v>
    <v>       0.00000000       0.00000000      20.00000000 </v>
   </varray>
   <i name="volume">  12448.53226106 </i>
   <varray name="rec_basis" >
    <v>       0.04010289       0.00001967       0.00000000 </v>
    <v>      -0.00000736       0.04006232       0.00000000 </v>
    <v>       0.00000000       0.00000000       0.05000000 </v>
   </varray>
  </crystal>
  <varray name="positions" >
   <v>       0.07444345       0.27628172       0.44681933 </v>
   <v>       0.06399533       0.22132994       0.44521123 </v>
   <v>       0.72601828       0.06917953       0.44397207 </v>
   <v>       0.78119674       0.06016748       0.44424531 </v>
   <v>       0.94400487       0.78031710       0.44724982 </v>
   <v>       0.93443591       0.72527298       0.44674272 </v>
   <v>       0.22229074       0.93601855       0.45067414 </v>
   <v>       0.27716408       0.92505790       0.45230463 </v>
   <v>       0.46057716       0.03738160       0.37791825 </v>
   <v>       0.48131901       0.01953139       0.44479738 </v>
   <v>       0.44952520       0.98858539       0.48907783 </v>
   <v>       0.95858281       0.45997934       0.37919832 </v>
   <v>       0.97880572       0.48040116       0.44517032 </v>
   <v>       0.01080959       0.44825959       0.48780406 </v>
   <v>       0.15866165       0.07445410       0.49969596 </v>
   <v>       0.12752104       0.11982951       0.49931440 </v>
   <v>       0.07230510       0.10363847       0.49885950 </v>
   <v>       0.12363248       0.02884923       0.50098353 </v>
   <v>       0.13877389       0.97457055       0.50266209 </v>
   <v>       0.10311642       0.93055849       0.50377990 </v>
   <v>       0.03090592       0.88128653       0.50448217 </v>
   <v>       0.07611874       0.84426231       0.50616794 </v>
   <v>       0.12112712       0.87498611       0.50670491 </v>
   <v>       0.97694097       0.86413452       0.50388676 </v>
   <v>       0.93183992       0.89788972       0.50298688 </v>
   <v>       0.88050524       0.97259332       0.50212269 </v>
   <v>       0.84548315       0.92696497       0.50191741 </v>
   <v>       0.87665445       0.88162267       0.50301406 </v>
   <v>       0.86527261       0.02681340       0.50057657 </v>
   <v>       0.90087062       0.07079953       0.49895560 </v>
   <v>       0.97309105       0.12006105       0.49817194 </v>
   <v>       0.92780279       0.15704905       0.49601544 </v>
   <v>       0.88279071       0.12633758       0.49731316 </v>
   <v>       0.02707813       0.13732354       0.49822195 </v>
   <v>       0.03776319       0.19610289       0.49873507 </v>
   <v>       0.02214867       0.22757387       0.55367586 </v>
   <v>       0.03207736       0.28249445       0.55469087 </v>
   <v>       0.05846753       0.30764769       0.50136895 </v>
   <v>       0.80647885       0.03772350       0.50036901 </v>
   <v>       0.77471050       0.02492097       0.55601772 </v>
   <v>       0.71946243       0.03388442       0.55542329 </v>
   <v>       0.69416269       0.05603151       0.49935689 </v>
   <v>       0.96598451       0.80536836       0.50379445 </v>
   <v>       0.94639696       0.69338225       0.50244273 </v>
   <v>       0.96803637       0.71849889       0.55898758 </v>
   <v>       0.97765917       0.77358114       0.55976911 </v>
   <v>       0.19748278       0.96335810       0.50364066 </v>
   <v>       0.22933180       0.97965267       0.55793936 </v>
   <v>       0.28422526       0.96923951       0.55894493 </v>
   <v>       0.30892095       0.94170004       0.50623012 </v>
   <v>       0.63455618       0.06711742       0.49688687 </v>
   <v>       0.06789372       0.36732704       0.50205786 </v>
   <v>       0.36859313       0.93185555       0.50668089 </v>
   <v>       0.93458333       0.63396480       0.49997260 </v>
   <v>       0.55042717       0.01803178       0.52153551 </v>
   <v>       0.51879176       0.98667225       0.56556730 </v>
   <v>       0.54010914       0.96797509       0.63175738 </v>
   <v>       0.98347536       0.54928059       0.52191811 </v>
   <v>       0.01566128       0.51718442       0.56446276 </v>
   <v>       0.03635106       0.53803559       0.62996999 </v>
   <v>       0.53108274       0.03387996       0.46217693 </v>
   <v>       0.39680726       0.97572859       0.47352961 </v>
   <v>       0.96555448       0.53023725       0.46332873 </v>
   <v>       0.02277605       0.39550853       0.47149224 </v>
   <v>       0.07205015       0.04848757       0.50001271 </v>
   <v>       0.04821073       0.93343921       0.50294018 </v>
   <v>       0.93212556       0.95304211       0.50272550 </v>
   <v>       0.95578932       0.06791505       0.49949577 </v>
   <v>       0.46903216       0.97251359       0.54836675 </v>
   <v>       0.60311436       0.03073978       0.53775705 </v>
   <v>       0.02880371       0.46741269       0.54639714 </v>
   <v>       0.97206694       0.60207400       0.53871819 </v>
   <v>       0.29558529       0.90311309       0.41095459 </v>
   <v>       0.19809891       0.92320662       0.40811971 </v>
   <v>       0.93523229       0.80429222       0.40295851 </v>
   <v>       0.91806260       0.70652369       0.40179994 </v>
   <v>       0.80512834       0.06982389       0.40018599 </v>
   <v>       0.70709271       0.08602508       0.39941267 </v>
   <v>       0.07617799       0.19750659       0.40205649 </v>
   <v>       0.09541887       0.29506575       0.40492752 </v>
   <v>       0.61993291       0.06298435       0.44538987 </v>
   <v>       0.10606351       0.37695029       0.47636993 </v>
   <v>       0.37774042       0.89289387       0.48274905 </v>
   <v>       0.93689352       0.61960664       0.44819804 </v>
   <v>       0.44908004       0.00299880       0.34630269 </v>
   <v>       0.42480228       0.06304200       0.38295794 </v>
   <v>       0.49174797       0.06011261       0.35169768 </v>
   <v>       0.38571647       0.98254804       0.42552008 </v>
   <v>       0.99184393       0.44820681       0.34589614 </v>
   <v>       0.93267373       0.42451409       0.38543336 </v>
   <v>       0.93537933       0.49142913       0.35423711 </v>
   <v>       0.01450359       0.38469710       0.42372970 </v>
   <v>       0.30840475       0.98236221       0.60142784 </v>
   <v>       0.21044441       0.00027502       0.59988496 </v>
   <v>       0.20208474       0.07228190       0.49930724 </v>
   <v>       0.14114462       0.16108187       0.49934085 </v>
   <v>       0.03830825       0.02531986       0.50050096 </v>
   <v>       0.96583687       0.97624147       0.50248798 </v>
   <v>       0.16247466       0.86155919       0.50900306 </v>
   <v>       0.07353630       0.80086094       0.50700628 </v>
   <v>       0.99454768       0.79240145       0.60429115 </v>
   <v>       0.97810127       0.69524761       0.60348625 </v>
   <v>       0.86318221       0.84032062       0.50367612 </v>
   <v>       0.80206913       0.92918800       0.50086620 </v>
   <v>       0.93031038       0.20041927       0.49373806 </v>
   <v>       0.84137090       0.13970719       0.49714692 </v>
   <v>       0.79370737       0.00773275       0.60024323 </v>
   <v>       0.69624492       0.02279280       0.59957663 </v>
   <v>       0.01943232       0.30636110       0.59764329 </v>
   <v>       0.00227354       0.20836423       0.59595589 </v>
   <v>       0.62719554       0.10953627       0.51072698 </v>
   <v>       0.07137758       0.38222996       0.55347105 </v>
   <v>       0.38391041       0.92990358       0.55803383 </v>
   <v>       0.89256445       0.62687169       0.51602187 </v>
   <v>       0.54999192       0.00193782       0.66491105 </v>
   <v>       0.50989299       0.94327209       0.65689082 </v>
   <v>       0.57704482       0.94422335       0.62553526 </v>
   <v>       0.61139163       0.03048733       0.58733415 </v>
   <v>       0.00336117       0.54843371       0.66442798 </v>
   <v>       0.06116659       0.50742481       0.65413117 </v>
   <v>       0.06058224       0.57456061       0.62294208 </v>
   <v>       0.97419613       0.61033518       0.58822065 </v>
  </varray>
 </structure>
 <calculation>
  <scstep>
   <time name="dav">  237.52  239.81</time>
   <time name="total">  237.74  240.03</time>
   <energy>
    <i name="alphaZ">     45.33946666 </i>
    <i name="ewald">  43436.52202575 </i>
    <i name="hartreedc"> -53829.43938922 </i>
    <i name="XCdc">   1207.74420678 </i>
    <i name="pawpsdc">  31696.06203681 </i>
    <i name="pawaedc"> -31755.61136903 </i>
    <i name="eentropy">     -0.00000000 </i>
    <i name="bandstr">  -4250.43576774 </i>
    <i name="atom">  12627.64498777 </i>
    <i name="e_fr_energy">   -822.17380222 </i>
    <i name="e_wo_entrp">   -822.17380222 </i>
    <i name="e_0_energy">   -822.17380222 </i>
   </energy>
  </scstep>
  <scstep>
   <time name="dav">  270.90  273.47</time>
   <time name="total">  270.91  273.48</time>
   <energy>
    <i name="e_fr_energy">   -822.76344612 </i>
    <i name="e_wo_entrp">   -822.76344612 </i>
    <i name="e_0_energy">   -822.76344612 </i>
   </energy>
  </scstep>
  <scstep>
   <time name="dav">  291.54  294.34</time>
   <time name="total">  291.55  294.35</time>
   <energy>
    <i name="e_fr_energy">   -822.78105880 </i>
    <i name="e_wo_entrp">   -822.78105880 </i>
    <i name="e_0_energy">   -822.78105880 </i>
   </energy>
  </scstep>
  <scstep>
   <time name="dav">  267.78  270.30</time>
   <time name="total">  267.79  270.31</time>
   <energy>
    <i name="e_fr_energy">   -822.78142739 </i>
    <i name="e_wo_entrp">   -822.78142739 </i>
    <i name="e_0_energy">   -822.78142739 </i>
   </energy>
  </scstep>
  <scstep>
   <time name="dav">  258.82  261.24</time>
   <time name="total">  258.83  261.25</time>
   <energy>
    <i name="e_fr_energy">   -822.78144497 </i>
    <i name="e_wo_entrp">   -822.78144497 </i>
    <i name="e_0_energy">   -822.78144497 </i>
   </energy>
  </scstep>
  <scstep>
   <time name="dav">  214.00  215.97</time>
   <time name="total">  214.01  215.98</time>
   <energy>
    <i name="alphaZ">     45.33946666 </i>
    <i name="ewald">  43436.52202575 </i>
    <i name="hartreedc"> -53829.43938922 </i>
    <i name="XCdc">   1207.74420678 </i>
    <i name="pawpsdc">  31696.06203681 </i>
    <i name="pawaedc"> -31755.61136903 </i>
    <i name="eentropy">     -0.00000000 </i>
    <i name="bandstr">  -4251.04341126 </i>
    <i name="atom">  12627.64498777 </i>
    <i name="e_fr_energy">   -822.78144574 </i>
    <i name="e_wo_entrp">   -822.78144574 </i>
    <i name="e_0_energy">   -822.78144574 </i>
   </energy>
  </scstep>
  <structure>
   <crystal>
    <varray name="basis" >
     <v>      24.93585635       0.00458111       0.00000000 </v>
     <v>      -0.01224527      24.96110613       0.00000000 </v>
     <v>       0.00000000       0.00000000      20.00000000 </v>
    </varray>
    <i name="volume">  12448.53226106 </i>
    <varray name="rec_basis" >
     <v>       0.04010289       0.00001967       0.00000000 </v>
     <v>      -0.00000736       0.04006232       0.00000000 </v>
     <v>       0.00000000       0.00000000       0.05000000 </v>
    </varray>
   </crystal>
   <varray name="positions" >
    <v>       0.07444345       0.27628172       0.44681933 </v>
    <v>       0.06399533       0.22132994       0.44521123 </v>
    <v>       0.72601828       0.06917953       0.44397207 </v>
    <v>       0.78119674       0.06016748       0.44424531 </v>
    <v>       0.94400487       0.78031710       0.44724982 </v>
    <v>       0.93443591       0.72527298       0.44674272 </v>
    <v>       0.22229074       0.93601855       0.45067414 </v>
    <v>       0.27716408       0.92505790       0.45230463 </v>
    <v>       0.46057716       0.03738160       0.37791825 </v>
    <v>       0.48131901       0.01953139       0.44479738 </v>
    <v>       0.44952520       0.98858539       0.48907783 </v>
    <v>       0.95858281       0.45997934       0.37919832 </v>
    <v>       0.97880572       0.48040116       0.44517032 </v>
    <v>       0.01080959       0.44825959       0.48780406 </v>
    <v>       0.15866165       0.07445410       0.49969596 </v>
    <v>       0.12752104       0.11982951       0.49931440 </v>
    <v>       0.07230510       0.10363847       0.49885950 </v>
    <v>       0.12363248       0.02884923       0.50098353 </v>
    <v>       0.13877389       0.97457055       0.50266209 </v>
    <v>       0.10311642       0.93055849       0.50377990 </v>
    <v>       0.03090592       0.88128653       0.50448217 </v>
    <v>       0.07611874       0.84426231       0.50616794 </v>
    <v>       0.12112712       0.87498611       0.50670491 </v>
    <v>       0.97694097       0.86413452       0.50388676 </v>
    <v>       0.93183992       0.89788972       0.50298688 </v>
    <v>       0.88050524       0.97259332       0.50212269 </v>
    <v>       0.84548315       0.92696497       0.50191741 </v>
    <v>       0.87665445       0.88162267       0.50301406 </v>
    <v>       0.86527261       0.02681340       0.50057657 </v>
    <v>       0.90087062       0.07079953       0.49895560 </v>
    <v>       0.97309105       0.12006105       0.49817194 </v>
    <v>       0.92780279       0.15704905       0.49601544 </v>
    <v>       0.88279071       0.12633758       0.49731316 </v>
    <v>       0.02707813       0.13732354       0.49822195 </v>
    <v>       0.03776319       0.19610289       0.49873507 </v>
    <v>       0.02214867       0.22757387       0.55367586 </v>
    <v>       0.03207736       0.28249445       0.55469087 </v>
    <v>       0.05846753       0.30764769       0.50136895 </v>
    <v>       0.80647885       0.03772350       0.50036901 </v>
    <v>       0.77471050       0.02492097       0.55601772 </v>
    <v>       0.71946243       0.03388442       0.55542329 </v>
    <v>       0.69416269       0.05603151       0.49935689 </v>
    <v>       0.96598451       0.80536836       0.50379445 </v>
    <v>       0.94639696       0.69338225       0.50244273 </v>
    <v>       0.96803637       0.71849889       0.55898758 </v>
    <v>       0.97765917       0.77358114       0.55976911 </v>
    <v>       0.19748278       0.96335810       0.50364066 </v>
    <v>       0.22933180       0.97965267       0.55793936 </v>
    <v>       0.28422526       0.96923951       0.55894493 </v>
    <v>       0.30892095       0.94170004       0.50623012 </v>
    <v>       0.63455618       0.06711742       0.49688687 </v>
    <v>       0.06789372       0.36732704       0.50205786 </v>
    <v>       0.36859313       0.93185555       0.50668089 </v>
    <v>       0.93458333       0.63396480       0.49997260 </v>
    <v>       0.55042717       0.01803178       0.52153551 </v>
    <v>       0.51879176       0.98667225       0.56556730 </v>
    <v>       0.54010914       0.96797509       0.63175738 </v>
    <v>       0.98347536       0.54928059       0.52191811 </v>
    <v>       0.01566128       0.51718442       0.56446276 </v>
    <v>       0.03635106       0.53803559       0.62996999 </v>
    <v>       0.53108274       0.03387996       0.46217693 </v>
    <v>       0.39680726       0.97572859       0.47352961 </v>
    <v>       0.96555448       0.53023725       0.46332873 </v>
    <v>       0.02277605       0.39550853       0.47149224 </v>
    <v>       0.07205015       0.04848757       0.50001271 </v>
    <v>       0.04821073       0.93343921       0.50294018 </v>
    <v>       0.93212556       0.95304211       0.50272550 </v>
    <v>       0.95578932       0.06791505       0.49949577 </v>
    <v>       0.46903216       0.97251359       0.54836675 </v>
    <v>       0.60311436       0.03073978       0.53775705 </v>
    <v>       0.02880371       0.46741269       0.54639714 </v>
    <v>       0.97206694       0.60207400       0.53871819 </v>
    <v>       0.29558529       0.90311309       0.41095459 </v>
    <v>       0.19809891       0.92320662       0.40811971 </v>
    <v>       0.93523229       0.80429222       0.40295851 </v>
    <v>       0.91806260       0.70652369       0.40179994 </v>
    <v>       0.80512834       0.06982389       0.40018599 </v>
    <v>       0.70709271       0.08602508       0.39941267 </v>
    <v>       0.07617799       0.19750659       0.40205649 </v>
    <v>       0.09541887       0.29506575       0.40492752 </v>
    <v>       0.61993291       0.06298435       0.44538987 </v>
    <v>       0.10606351       0.37695029       0.47636993 </v>
    <v>       0.37774042       0.89289387       0.48274905 </v>
    <v>       0.93689352       0.61960664       0.44819804 </v>
    <v>       0.44908004       0.00299880       0.34630269 </v>
    <v>       0.42480228       0.06304200       0.38295794 </v>
    <v>       0.49174797       0.06011261       0.35169768 </v>
    <v>       0.38571647       0.98254804       0.42552008 </v>
    <v>       0.99184393       0.44820681       0.34589614 </v>
    <v>       0.93267373       0.42451409       0.38543336 </v>
    <v>       0.93537933       0.49142913       0.35423711 </v>
    <v>       0.01450359       0.38469710       0.42372970 </v>
    <v>       0.30840475       0.98236221       0.60142784 </v>
    <v>       0.21044441       0.00027502       0.59988496 </v>
    <v>       0.20208474       0.07228190       0.49930724 </v>
    <v>       0.14114462       0.16108187       0.49934085 </v>
    <v>       0.03830825       0.02531986       0.50050096 </v>
    <v>       0.96583687       0.97624147       0.50248798 </v>
    <v>       0.16247466       0.86155919       0.50900306 </v>
    <v>       0.07353630       0.80086094       0.50700628 </v>
    <v>       0.99454768       0.79240145       0.60429115 </v>
    <v>       0.97810127       0.69524761       0.60348625 </v>
    <v>       0.86318221       0.84032062       0.50367612 </v>
    <v>       0.80206913       0.92918800       0.50086620 </v>
    <v>       0.93031038       0.20041927       0.49373806 </v>
    <v>       0.84137090       0.13970719       0.49714692 </v>
    <v>       0.79370737       0.00773275       0.60024323 </v>
    <v>       0.69624492       0.02279280       0.59957663 </v>
    <v>       0.01943232       0.30636110       0.59764329 </v>
    <v>       0.00227354       0.20836423       0.59595589 </v>
    <v>       0.62719554       0.10953627       0.51072698 </v>
    <v>       0.07137758       0.38222996       0.55347105 </v>
    <v>       0.38391041       0.92990358       0.55803383 </v>
    <v>       0.89256445       0.62687169       0.51602187 </v>
    <v>       0.54999192       0.00193782       0.66491105 </v>
    <v>       0.50989299       0.94327209       0.65689082 </v>
    <v>       0.57704482       0.94422335       0.62553526 </v>
    <v>       0.61139163       0.03048733       0.58733415 </v>
    <v>       0.00336117       0.54843371       0.66442798 </v>
    <v>       0.06116659       0.50742481       0.65413117 </v>
    <v>       0.06058224       0.57456061       0.62294208 </v>
    <v>       0.97419613       0.61033518       0.58822065 </v>
   </varray>
  </structure>
  <varray name="forces" >
   <v>       0.00034012      -0.00039907      -0.00170496 </v>
   <v>      -0.00203303      -0.00109646       0.00050767 </v>
   <v>       0.00047739      -0.00078103      -0.00130574 </v>
   <v>       0.00140175      -0.00000497       0.00092167 </v>
   <v>       0.00095898       0.00217984       0.00100818 </v>
   <v>       0.00043758       0.00052502      -0.00189877 </v>
   <v>       0.00005306       0.00133084       0.00110921 </v>
   <v>       0.00073832       0.00007194       0.00127367 </v>
   <v>      -0.00101440       0.00157799      -0.00129144 </v>
   <v>       0.00117768      -0.00319999       0.00360606 </v>
   <v>       0.00069994       0.00083464      -0.00144948 </v>
   <v>      -0.00170202       0.00159520       0.00403364 </v>
   <v>       0.00023549      -0.00394745      -0.00018375 </v>
   <v>       0.00256475      -0.00347351       0.00078546 </v>
   <v>      -0.00146122      -0.00097250       0.00030782 </v>
   <v>       0.00259558       0.00250429      -0.00011394 </v>
   <v>      -0.00227733       0.00086894      -0.00082426 </v>
   <v>       0.00555753       0.00042241      -0.00021136 </v>
   <v>      -0.00089638      -0.00132821      -0.00019177 </v>
   <v>       0.00290187      -0.00021939      -0.00090005 </v>
   <v>      -0.00516373      -0.00098895      -0.00218095 </v>
   <v>      -0.00071918      -0.00202369       0.00067111 </v>
   <v>       0.00016137       0.00063987       0.00113085 </v>
   <v>      -0.00315542       0.00130061       0.00072165 </v>
   <v>       0.00294425      -0.00146704      -0.00074567 </v>
   <v>      -0.00071110      -0.00238366      -0.00028254 </v>
   <v>       0.00080227       0.00086758      -0.00007636 </v>
   <v>      -0.00044230      -0.00178036       0.00043804 </v>
   <v>      -0.00341276       0.00045673      -0.00109297 </v>
   <v>      -0.00363214      -0.00042869      -0.00210513 </v>
   <v>      -0.00329392       0.00435869      -0.00183656 </v>
   <v>       0.00253867      -0.00237066       0.00115017 </v>
   <v>      -0.00245248      -0.00098137       0.00011864 </v>
   <v>       0.00085187       0.00236334      -0.00197995 </v>
   <v>       0.00333547      -0.00226534      -0.00133439 </v>
   <v>       0.00035167       0.00078002      -0.00169124 </v>
   <v>      -0.00062166      -0.00192557      -0.00087592 </v>
   <v>       0.00343376       0.00003116      -0.00076830 </v>
   <v>      -0.00063529      -0.00096164       0.00289171 </v>
   <v>       0.00007860       0.00226269      -0.00378765 </v>
   <v>       0.00187255      -0.00161988       0.00084466 </v>
   <v>       0.00088594       0.00021074      -0.00113145 </v>
   <v>       0.00011913      -0.00038581      -0.00229836 </v>
   <v>      -0.00222495      -0.00172236       0.00170446 </v>
   <v>      -0.00070566       0.00070676      -0.00238935 </v>
   <v>      -0.00017694       0.00140162       0.00075688 </v>
   <v>      -0.00161872      -0.00071453      -0.00085798 </v>
   <v>       0.00333641      -0.00049592      -0.00037693 </v>
   <v>       0.00053013      -0.00095017      -0.00089315 </v>
   <v>       0.00401972      -0.00223135      -0.00412035 </v>
   <v>      -0.00309298       0.00142147       0.00026966 </v>
   <v>       0.00200767       0.00045398      -0.00171323 </v>
   <v>      -0.00388939      -0.00304322       0.00019847 </v>
   <v>      -0.00116735      -0.00226139       0.00036163 </v>
   <v>      -0.00012653      -0.00331416      -0.00043851 </v>
   <v>       0.00311847       0.00320906      -0.00316651 </v>
   <v>      -0.00393290       0.00308849      -0.00432536 </v>
   <v>      -0.00300570       0.00292441      -0.00622395 </v>
   <v>       0.00120147       0.00494753       0.00361829 </v>
   <v>       0.00123214       0.00106247       0.00003513 </v>
   <v>      -0.00165733      -0.00305385       0.00208508 </v>
   <v>       0.00191322       0.00014988       0.00177743 </v>
   <v>      -0.00153770      -0.00152351      -0.00206446 </v>
   <v>       0.00096990       0.00054283      -0.00115845 </v>
   <v>      -0.00527987      -0.00044583       0.00008121 </v>
   <v>       0.00123755      -0.00101285       0.00089063 </v>
   <v>      -0.00213027      -0.00208504       0.00101265 </v>
   <v>      -0.00226782       0.00209611       0.00149281 </v>
   <v>       0.00395059       0.00441720       0.00432390 </v>
   <v>       0.00517553       0.00131398       0.00778361 </v>
   <v>       0.00269237      -0.00524566      -0.00021404 </v>
   <v>       0.00416840      -0.00459383      -0.00312551 </v>
   <v>       0.00028208      -0.00032110      -0.00035161 </v>
   <v>       0.00047318       0.00016033      -0.00016704 </v>
   <v>      -0.00041955      -0.00000309      -0.00155901 </v>
   <v>      -0.00260481      -0.00207758      -0.00017924 </v>
   <v>       0.00018566       0.00047602      -0.00097367 </v>
   <v>      -0.00010882       0.00187941      -0.00139555 </v>
   <v>      -0.00166816       0.00086872       0.00091694 </v>
   <v>       0.00013854      -0.00015137       0.00084833 </v>
   <v>      -0.00190651      -0.00096384      -0.00115390 </v>
   <v>      -0.00180910       0.00010111       0.00090851 </v>
   <v>      -0.00038002       0.00069647       0.00021758 </v>
   <v>      -0.00314328      -0.00004296      -0.00085633 </v>
   <v>       0.00094849       0.00337969       0.00249982 </v>
   <v>       0.00155608       0.00160580       0.00489884 </v>
   <v>       0.00020010       0.00204660       0.00131838 </v>
   <v>       0.00101683       0.00085278      -0.00219862 </v>
   <v>      -0.00391171      -0.00154347      -0.00222353 </v>
   <v>      -0.00113204       0.00010122       0.00284293 </v>
   <v>      -0.00517360      -0.00061832      -0.00111871 </v>
   <v>      -0.00098480      -0.00097612       0.00092141 </v>
   <v>       0.00098801      -0.00081384       0.00206489 </v>
   <v>       0.00013576      -0.00020962       0.00153306 </v>
   <v>      -0.00235082      -0.00149311       0.00105727 </v>
   <v>      -0.00137510      -0.00312016       0.00078885 </v>
   <v>       0.00318290       0.00276260      -0.00179826 </v>
   <v>      -0.00000361      -0.00026975      -0.00206269 </v>
   <v>      -0.00073556       0.00007066      -0.00068591 </v>
   <v>      -0.00115878       0.00019720      -0.00077607 </v>
   <v>      -0.00170286       0.00053726      -0.00171189 </v>
   <v>      -0.00103570      -0.00039817       0.00188761 </v>
   <v>      -0.00153626       0.00030475      -0.00084366 </v>
   <v>      -0.00236580      -0.00001124      -0.00004053 </v>
   <v>       0.00094787      -0.00120911       0.00080703 </v>
   <v>       0.00328157      -0.00162455       0.00032066 </v>
   <v>       0.00000719      -0.00000673      -0.00043664 </v>
   <v>       0.00001221       0.00092007      -0.00122158 </v>
   <v>      -0.00048301       0.00247857       0.00206649 </v>
   <v>      -0.00050405      -0.00025823       0.00067942 </v>
   <v>       0.00137454       0.00268649       0.00205613 </v>
   <v>       0.00119909       0.00123627       0.00007220 </v>
   <v>       0.00199293      -0.00039632      -0.00210703 </v>
   <v>      -0.00023015       0.00228720      -0.00220175 </v>
   <v>       0.00273212       0.00031971       0.00526123 </v>
   <v>      -0.00072903      -0.00473254       0.00419212 </v>
   <v>       0.00228946      -0.00012202      -0.00171800 </v>
   <v>      -0.00085919       0.00257158       0.00198535 </v>
   <v>      -0.00096200      -0.00077220       0.00061226 </v>
   <v>       0.00270257       0.00093483      -0.00078537 </v>
   <v>       0.00192022       0.00260064      -0.00159470 </v>
   <v>       0.00507620       0.00484007       0.00482267 </v>
  </varray>
  <varray name="stress" >
   <v>      -0.02335762      -0.00027553       0.00910728 </v>
   <v>      -0.00027553      -0.01886215      -0.00183836 </v>
   <v>       0.00910728      -0.00183836      -0.19399636 </v>
  </varray>
  <energy>
   <i name="e_fr_energy">   -825.31800772 </i>
   <i name="e_wo_entrp">   -825.31800772 </i>
   <i name="e_0_energy">     -0.00000000 </i>
  </energy>
  <time name="totalsc"> 1771.01 1788.41</time>
  <eigenvalues>
   <array>
    <dimension dim="1">band</dimension>
    <dimension dim="2">kpoint</dimension>
    <dimension dim="3">spin</dimension>
    <field>eigene</field>
    <field>occ</field>
    <set>
     <set comment="spin 1">
      <set comment="kpoint 1">
       <r>  -24.2098    1.0000 </r>
       <r>  -24.1739    1.0000 </r>
       <r>  -24.1387    1.0000 </r>
       <r>  -24.1264    1.0000 </r>
       <r>  -23.1937    1.0000 </r>
       <r>  -23.1795    1.0000 </r>
       <r>  -22.9546    1.0000 </r>
       <r>  -22.8868    1.0000 </r>
       <r>  -22.2057    1.0000 </r>
       <r>  -22.1917    1.0000 </r>
       <r>  -21.5410    1.0000 </r>
       <r>  -21.5285    1.0000 </r>
       <r>  -21.1450    1.0000 </r>
       <r>  -21.0849    1.0000 </r>
       <r>  -21.0744    1.0000 </r>
       <r>  -21.0190    1.0000 </r>
       <r>  -20.0662    1.0000 </r>
       <r>  -19.7977    1.0000 </r>
       <r>  -19.7327    1.0000 </r>
       <r>  -19.4083    1.0000 </r>
       <r>  -19.0772    1.0000 </r>
       <r>  -18.9785    1.0000 </r>
       <r>  -18.9624    1.0000 </r>
       <r>  -18.8985    1.0000 </r>
       <r>  -18.4519    1.0000 </r>
       <r>  -18.2823    1.0000 </r>
       <r>  -18.1538    1.0000 </r>
       <r>  -18.0980    1.0000 </r>
       <r>  -18.0820    1.0000 </r>
       <r>  -18.0711    1.0000 </r>
       <r>  -18.0401    1.0000 </r>
       <r>  -18.0391    1.0000 </r>
       <r>  -18.0027    1.0000 </r>
       <r>  -17.8689    1.0000 </r>
       <r>  -17.8454    1.0000 </r>
       <r>  -17.7268    1.0000 </r>
       <r>  -17.3264    1.0000 </r>
       <r>  -16.6879    1.0000 </r>
       <r>  -16.6212    1.0000 </r>
       <r>  -16.5028    1.0000 </r>
       <r>  -16.3012    1.0000 </r>
       <r>  -15.9620    1.0000 </r>
       <r>  -15.8943    1.0000 </r>
       <r>  -15.5553    1.0000 </r>
       <r>  -15.5490    1.0000 </r>
       <r>  -14.9414    1.0000 </r>
       <r>  -14.8592    1.0000 </r>
       <r>  -14.8243    1.0000 </r>
       <r>  -14.6884    1.0000 </r>
       <r>  -14.6689    1.0000 </r>
       <r>  -14.6056    1.0000 </r>
       <r>  -14.4879    1.0000 </r>
       <r>  -14.4439    1.0000 </r>
       <r>  -14.2912    1.0000 </r>
       <r>  -14.2199    1.0000 </r>
       <r>  -14.1715    1.0000 </r>
       <r>  -14.1145    1.0000 </r>
       <r>  -14.0908    1.0000 </r>
       <r>  -14.0472    1.0000 </r>
       <r>  -13.7730    1.0000 </r>
       <r>  -13.6849    1.0000 </r>
       <r>  -13.5726    1.0000 </r>
       <r>  -13.2974    1.0000 </r>
       <r>  -13.0784    1.0000 </r>
       <r>  -13.0287    1.0000 </r>
       <r>  -12.9574    1.0000 </r>
       <r>  -12.8797    1.0000 </r>
       <r>  -12.4677    1.0000 </r>
       <r>  -12.4059    1.0000 </r>
       <r>  -12.3445    1.0000 </r>
       <r>  -12.1605    1.0000 </r>
       <r>  -12.1515    1.0000 </r>
       <r>  -12.1282    1.0000 </r>
       <r>  -12.0545    1.0000 </r>
       <r>  -11.8358    1.0000 </r>
       <r>  -11.8326    1.0000 </r>
       <r>  -11.4814    1.0000 </r>
       <r>  -11.4651    1.0000 </r>
       <r>  -11.2631    1.0000 </r>
       <r>  -11.2268    1.0000 </r>
       <r>  -11.1774    1.0000 </r>
       <r>  -11.0958    1.0000 </r>
       <r>  -11.0500    1.0000 </r>
       <r>  -10.8133    1.0000 </r>
       <r>  -10.7712    1.0000 </r>
       <r>  -10.7465    1.0000 </r>
       <r>  -10.6788    1.0000 </r>
       <r>  -10.6407    1.0000 </r>
       <r>  -10.5829    1.0000 </r>
       <r>  -10.5626    1.0000 </r>
       <r>  -10.5311    1.0000 </r>
       <r>  -10.4211    1.0000 </r>
       <r>  -10.4147    1.0000 </r>
       <r>  -10.3805    1.0000 </r>
       <r>  -10.3447    1.0000 </r>
       <r>  -10.2232    1.0000 </r>
       <r>  -10.0777    1.0000 </r>
       <r>  -10.0649    1.0000 </r>
       <r>   -9.9294    1.0000 </r>
       <r>   -9.8813    1.0000 </r>
       <r>   -9.8355    1.0000 </r>
       <r>   -9.8100    1.0000 </r>
       <r>   -9.7976    1.0000 </r>
       <r>   -9.7814    1.0000 </r>
       <r>   -9.7672    1.0000 </r>
       <r>   -9.7486    1.0000 </r>
       <r>   -9.7437    1.0000 </r>
       <r>   -9.6784    1.0000 </r>
       <r>   -9.6343    1.0000 </r>
       <r>   -9.5847    1.0000 </r>
       <r>   -9.5739    1.0000 </r>
       <r>   -9.4480    1.0000 </r>
       <r>   -9.4366    1.0000 </r>
       <r>   -9.4163    1.0000 </r>
       <r>   -9.3900    1.0000 </r>
       <r>   -9.3320    1.0000 </r>
       <r>   -9.2294    1.0000 </r>
       <r>   -9.2260    1.0000 </r>
       <r>   -9.1644    1.0000 </r>
       <r>   -9.0960    1.0000 </r>
       <r>   -9.0753    1.0000 </r>
       <r>   -9.0194    1.0000 </r>
       <r>   -8.9057    1.0000 </r>
       <r>   -8.8815    1.0000 </r>
       <r>   -8.8537    1.0000 </r>
       <r>   -8.7789    1.0000 </r>
       <r>   -8.7390    1.0000 </r>
       <r>   -8.7103    1.0000 </r>
       <r>   -8.7013    1.0000 </r>
       <r>   -8.6540    1.0000 </r>
       <r>   -8.5561    1.0000 </r>
       <r>   -8.5404    1.0000 </r>
       <r>   -8.4171    1.0000 </r>
       <r>   -8.3676    1.0000 </r>
       <r>   -8.2394    1.0000 </r>
       <r>   -8.1501    1.0000 </r>
       <r>   -8.0324    1.0000 </r>
       <r>   -8.0086    1.0000 </r>
       <r>   -7.9667    1.0000 </r>
       <r>   -7.9002    1.0000 </r>
       <r>   -7.8474    1.0000 </r>
       <r>   -7.7930    1.0000 </r>
       <r>   -7.7642    1.0000 </r>
       <r>   -7.7461    1.0000 </r>
       <r>   -7.6432    1.0000 </r>
       <r>   -7.5846    1.0000 </r>
       <r>   -7.3350    1.0000 </r>
       <r>   -6.6487    1.0000 </r>
       <r>   -6.5045    1.0000 </r>
       <r>   -6.4663    1.0000 </r>
       <r>   -6.4486    1.0000 </r>
       <r>   -6.1873    1.0000 </r>
       <r>   -6.1725    1.0000 </r>
       <r>   -6.1017    1.0000 </r>
       <r>   -6.0772    1.0000 </r>
       <r>   -6.0193    1.0000 </r>
       <r>   -6.0055    1.0000 </r>
       <r>   -5.9675    1.0000 </r>
       <r>   -5.9571    1.0000 </r>
       <r>   -5.9093    1.0000 </r>
       <r>   -5.8570    1.0000 </r>
       <r>   -5.7776    1.0000 </r>
       <r>   -5.7615    1.0000 </r>
       <r>   -5.7377    1.0000 </r>
       <r>   -5.7118    1.0000 </r>
       <r>   -5.6120    1.0000 </r>
       <r>   -5.5931    1.0000 </r>
       <r>   -5.3689    1.0000 </r>
       <r>   -5.2798    1.0000 </r>
       <r>   -5.0917    1.0000 </r>
       <r>   -5.0773    1.0000 </r>
       <r>   -4.7010    1.0000 </r>
       <r>   -4.3172    1.0000 </r>
       <r>   -3.8531    1.0000 </r>
       <r>   -3.8414    1.0000 </r>
       <r>   -2.5808    0.0000 </r>
       <r>   -2.5791    0.0000 </r>
       <r>   -1.3368    0.0000 </r>
       <r>   -1.2569    0.0000 </r>
       <r>   -1.2426    0.0000 </r>
       <r>   -0.9642    0.0000 </r>
       <r>   -0.9599    0.0000 </r>
       <r>   -0.9349    0.0000 </r>
       <r>   -0.9099    0.0000 </r>
       <r>   -0.9045    0.0000 </r>
       <r>   -0.8950    0.0000 </r>
       <r>   -0.8734    0.0000 </r>
       <r>   -0.8664    0.0000 </r>
       <r>   -0.3427    0.0000 </r>
       <r>   -0.2852    0.0000 </r>
       <r>   -0.1956    0.0000 </r>
       <r>   -0.1752    0.0000 </r>
       <r>   -0.0662    0.0000 </r>
       <r>   -0.0536    0.0000 </r>
       <r>    0.1158    0.0000 </r>
       <r>    0.1383    0.0000 </r>
       <r>    0.1481    0.0000 </r>
       <r>    0.2897    0.0000 </r>
       <r>    0.3157    0.0000 </r>
       <r>    0.3387    0.0000 </r>
       <r>    0.3752    0.0000 </r>
       <r>    0.4109    0.0000 </r>
       <r>    0.4179    0.0000 </r>
       <r>    0.5005    0.0000 </r>
       <r>    0.5357    0.0000 </r>
       <r>    0.5717    0.0000 </r>
       <r>    0.5896    0.0000 </r>
       <r>    0.6321    0.0000 </r>
       <r>    0.6689    0.0000 </r>
       <r>    0.7210    0.0000 </r>
       <r>    0.7288    0.0000 </r>
       <r>    0.7622    0.0000 </r>
       <r>    0.7940    0.0000 </r>
       <r>    0.8064    0.0000 </r>
       <r>    0.8262    0.0000 </r>
       <r>    0.8348    0.0000 </r>
       <r>    0.8418    0.0000 </r>
       <r>    0.8702    0.0000 </r>
       <r>    0.8793    0.0000 </r>
       <r>    0.8979    0.0000 </r>
       <r>    0.9284    0.0000 </r>
       <r>    0.9517    0.0000 </r>
       <r>    0.9697    0.0000 </r>
       <r>    0.9841    0.0000 </r>
       <r>    1.0131    0.0000 </r>
       <r>    1.0365    0.0000 </r>
       <r>    1.0373    0.0000 </r>
       <r>    1.0772    0.0000 </r>
       <r>    1.0980    0.0000 </r>
       <r>    1.1103    0.0000 </r>
       <r>    1.1205    0.0000 </r>
       <r>    1.1464    0.0000 </r>
       <r>    1.1894    0.0000 </r>
       <r>    1.2052    0.0000 </r>
       <r>    1.2156    0.0000 </r>
       <r>    1.2558    0.0000 </r>
       <r>    1.2724    0.0000 </r>
       <r>    1.3142    0.0000 </r>
       <r>    1.3614    0.0000 </r>
       <r>    1.3710    0.0000 </r>
      </set>
      <set comment="kpoint 2">
       <r>  -24.2098    1.0000 </r>
       <r>  -24.1739    1.0000 </r>
       <r>  -24.1387    1.0000 </r>
       <r>  -24.1264    1.0000 </r>
       <r>  -23.1937    1.0000 </r>
       <r>  -23.1795    1.0000 </r>
       <r>  -22.9546    1.0000 </r>
       <r>  -22.8868    1.0000 </r>
       <r>  -22.2057    1.0000 </r>
       <r>  -22.1917    1.0000 </r>
       <r>  -21.5410    1.0000 </r>
       <r>  -21.5285    1.0000 </r>
       <r>  -21.1450    1.0000 </r>
       <r>  -21.0849    1.0000 </r>
       <r>  -21.0743    1.0000 </r>
       <r>  -21.0191    1.0000 </r>
       <r>  -20.0664    1.0000 </r>
       <r>  -19.7974    1.0000 </r>
       <r>  -19.7325    1.0000 </r>
       <r>  -19.4087    1.0000 </r>
       <r>  -19.0772    1.0000 </r>
       <r>  -18.9808    1.0000 </r>
       <r>  -18.9605    1.0000 </r>
       <r>  -18.8980    1.0000 </r>
       <r>  -18.4516    1.0000 </r>
       <r>  -18.2822    1.0000 </r>
       <r>  -18.1538    1.0000 </r>
       <r>  -18.0980    1.0000 </r>
       <r>  -18.0821    1.0000 </r>
       <r>  -18.0711    1.0000 </r>
       <r>  -18.0404    1.0000 </r>
       <r>  -18.0389    1.0000 </r>
       <r>  -18.0027    1.0000 </r>
       <r>  -17.8697    1.0000 </r>
       <r>  -17.8466    1.0000 </r>
       <r>  -17.7249    1.0000 </r>
       <r>  -17.3264    1.0000 </r>
       <r>  -16.6884    1.0000 </r>
       <r>  -16.6210    1.0000 </r>
       <r>  -16.5031    1.0000 </r>
       <r>  -16.3010    1.0000 </r>
       <r>  -15.9616    1.0000 </r>
       <r>  -15.8940    1.0000 </r>
       <r>  -15.5560    1.0000 </r>
       <r>  -15.5491    1.0000 </r>
       <r>  -14.9410    1.0000 </r>
       <r>  -14.8593    1.0000 </r>
       <r>  -14.8242    1.0000 </r>
       <r>  -14.6885    1.0000 </r>
       <r>  -14.6688    1.0000 </r>
       <r>  -14.6056    1.0000 </r>
       <r>  -14.4879    1.0000 </r>
       <r>  -14.4439    1.0000 </r>
       <r>  -14.2913    1.0000 </r>
       <r>  -14.2201    1.0000 </r>
       <r>  -14.1715    1.0000 </r>
       <r>  -14.1160    1.0000 </r>
       <r>  -14.0903    1.0000 </r>
       <r>  -14.0457    1.0000 </r>
       <r>  -13.7734    1.0000 </r>
       <r>  -13.6848    1.0000 </r>
       <r>  -13.5725    1.0000 </r>
       <r>  -13.2974    1.0000 </r>
       <r>  -13.0783    1.0000 </r>
       <r>  -13.0288    1.0000 </r>
       <r>  -12.9576    1.0000 </r>
       <r>  -12.8796    1.0000 </r>
       <r>  -12.4677    1.0000 </r>
       <r>  -12.4061    1.0000 </r>
       <r>  -12.3444    1.0000 </r>
       <r>  -12.1605    1.0000 </r>
       <r>  -12.1515    1.0000 </r>
       <r>  -12.1282    1.0000 </r>
       <r>  -12.0544    1.0000 </r>
       <r>  -11.8358    1.0000 </r>
       <r>  -11.8326    1.0000 </r>
       <r>  -11.4823    1.0000 </r>
       <r>  -11.4643    1.0000 </r>
       <r>  -11.2630    1.0000 </r>
       <r>  -11.2267    1.0000 </r>
       <r>  -11.1775    1.0000 </r>
       <r>  -11.0958    1.0000 </r>
       <r>  -11.0504    1.0000 </r>
       <r>  -10.8131    1.0000 </r>
       <r>  -10.7714    1.0000 </r>
       <r>  -10.7462    1.0000 </r>
       <r>  -10.6787    1.0000 </r>
       <r>  -10.6407    1.0000 </r>
       <r>  -10.5829    1.0000 </r>
       <r>  -10.5627    1.0000 </r>
       <r>  -10.5311    1.0000 </r>
       <r>  -10.4211    1.0000 </r>
       <r>  -10.4147    1.0000 </r>
       <r>  -10.3805    1.0000 </r>
       <r>  -10.3447    1.0000 </r>
       <r>  -10.2233    1.0000 </r>
       <r>  -10.0779    1.0000 </r>
       <r>  -10.0647    1.0000 </r>
       <r>   -9.9293    1.0000 </r>
       <r>   -9.8814    1.0000 </r>
       <r>   -9.8355    1.0000 </r>
       <r>   -9.8100    1.0000 </r>
       <r>   -9.7976    1.0000 </r>
       <r>   -9.7814    1.0000 </r>
       <r>   -9.7672    1.0000 </r>
       <r>   -9.7486    1.0000 </r>
       <r>   -9.7436    1.0000 </r>
       <r>   -9.6784    1.0000 </r>
       <r>   -9.6341    1.0000 </r>
       <r>   -9.5847    1.0000 </r>
       <r>   -9.5739    1.0000 </r>
       <r>   -9.4480    1.0000 </r>
       <r>   -9.4366    1.0000 </r>
       <r>   -9.4163    1.0000 </r>
       <r>   -9.3900    1.0000 </r>
       <r>   -9.3321    1.0000 </r>
       <r>   -9.2294    1.0000 </r>
       <r>   -9.2259    1.0000 </r>
[...]
       <r>   -19.3901     9.5689    39.9992 </r>
       <r>   -19.2963     0.0000    40.0000 </r>
       <r>   -19.2025     0.0000    40.0000 </r>
       <r>   -19.1086     0.0001    40.0000 </r>
       <r>   -19.0148    43.0635    44.0408 </r>
       <r>   -18.9210    17.6901    45.9950 </r>
       <r>   -18.8271     9.4735    46.8890 </r>
       <r>   -18.7333     3.8130    47.3912 </r>
       <r>   -18.6395     5.9767    47.9951 </r>
       <r>   -18.5456     0.0000    48.0000 </r>
       <r>   -18.4518     9.8715    48.9263 </r>
       <r>   -18.3580     7.8055    50.0000 </r>
       <r>   -18.2641     7.0891    50.6652 </r>
       <r>   -18.1703    10.4922    52.0533 </r>
       <r>   -18.0765    68.2689    58.6007 </r>
       <r>   -17.9826    67.6306    66.3492 </r>
       <r>   -17.8888    15.7796    68.5856 </r>
       <r>   -17.7950    12.7592    70.0000 </r>
       <r>   -17.7011     2.6886    70.2523 </r>
       <r>   -17.6073     4.2138    70.7288 </r>
       <r>   -17.5135     6.8952    71.4817 </r>
       <r>   -17.4196     4.2620    72.0000 </r>
       <r>   -17.3258     4.0628    72.3812 </r>
       <r>   -17.2319     0.0000    74.0000 </r>
       <r>   -17.1381     0.0000    74.0000 </r>
       <r>   -17.0443     0.0000    74.0000 </r>
       <r>   -16.9504     0.0000    74.0000 </r>
       <r>   -16.8566     0.0000    74.0000 </r>
       <r>   -16.7628     8.0030    74.7510 </r>
       <r>   -16.6689     9.2332    76.0009 </r>
       <r>   -16.5751    20.4771    77.9229 </r>
       <r>   -16.4813    21.3043    79.9998 </r>
       <r>   -16.3874     0.0000    80.0000 </r>
       <r>   -16.2936     4.3255    80.4059 </r>
       <r>   -16.1998     9.9077    82.0000 </r>
       <r>   -16.1059     0.0000    82.0000 </r>
       <r>   -16.0121     0.0000    82.0000 </r>
       <r>   -15.9183    12.4692    83.1700 </r>
       <r>   -15.8244    14.2466    84.6703 </r>
       <r>   -15.7306    13.4612    86.1300 </r>
       <r>   -15.6368    10.8075    87.6484 </r>
       <r>   -15.5429    21.6780    89.8347 </r>
       <r>   -15.4491     0.0000    90.0000 </r>
       <r>   -15.3553     0.0000    90.0000 </r>
       <r>   -15.2614     0.0000    90.0000 </r>
       <r>   -15.1676     0.0000    90.0000 </r>
       <r>   -15.0738     0.0000    90.0000 </r>
       <r>   -14.9799     0.0000    90.0000 </r>
       <r>   -14.8861    15.7330    91.4763 </r>
       <r>   -14.7923    32.7682    95.0792 </r>
       <r>   -14.6984    22.2281    97.4199 </r>
       <r>   -14.6046    26.8496   100.5194 </r>
       <r>   -14.5108    12.6735   102.6586 </r>
       <r>   -14.4169    30.1308   106.1313 </r>
       <r>   -14.3231     6.1124   106.8743 </r>
       <r>   -14.2293    26.3430   109.7081 </r>
       <r>   -14.1354    28.4744   112.6719 </r>
       <r>   -14.0416    31.4376   115.7511 </r>
       <r>   -13.9478    13.6617   117.3169 </r>
       <r>   -13.8539     6.5975   118.0532 </r>
       <r>   -13.7601    12.3489   119.9929 </r>
       <r>   -13.6663    21.1826   121.9876 </r>
       <r>   -13.5724     2.1049   122.1975 </r>
       <r>   -13.4786    13.8341   124.0000 </r>
       <r>   -13.3848     0.0000   124.0000 </r>
       <r>   -13.2909    19.7462   125.8529 </r>
       <r>   -13.1971     0.0000   126.0000 </r>
       <r>   -13.1033     0.0007   126.0001 </r>
       <r>   -13.0094    45.0509   130.2274 </r>
       <r>   -12.9156    15.6138   132.0000 </r>
       <r>   -12.8218    21.3143   134.0000 </r>
       <r>   -12.7279     0.0000   134.0000 </r>
       <r>   -12.6341     0.0000   134.0000 </r>
       <r>   -12.5403     0.0000   134.0000 </r>
       <r>   -12.4464    22.2188   136.0849 </r>
       <r>   -12.3526    14.2431   138.0390 </r>
       <r>   -12.2588    16.6651   140.0000 </r>
       <r>   -12.1649    11.1452   141.0458 </r>
       <r>   -12.0711    34.6299   146.0033 </r>
       <r>   -11.9773    21.2787   148.0000 </r>
       <r>   -11.8834     0.0000   148.0000 </r>
       <r>   -11.7896    42.6286   152.0000 </r>
       <r>   -11.6958     0.0000   152.0000 </r>
       <r>   -11.6019     0.0000   152.0000 </r>
       <r>   -11.5081    14.8948   153.3976 </r>
       <r>   -11.4143    17.6298   155.3223 </r>
       <r>   -11.3204     4.3503   156.0096 </r>
       <r>   -11.2266    21.4629   158.1833 </r>
       <r>   -11.1328    35.8494   162.0010 </r>
       <r>   -11.0389    42.4667   165.9858 </r>
       <r>   -10.9451     0.0000   166.0000 </r>
       <r>   -10.8513     0.6560   166.0616 </r>
       <r>   -10.7574    32.0831   169.4455 </r>
       <r>   -10.6636    33.7133   173.5003 </r>
       <r>   -10.5698    51.2137   178.8073 </r>
       <r>   -10.4759    21.3143   182.0000 </r>
       <r>   -10.3821    49.8092   186.6738 </r>
       <r>   -10.2883    21.3143   190.0000 </r>
       <r>   -10.1944    21.3142   192.0000 </r>
       <r>   -10.1006     4.1587   192.3902 </r>
       <r>   -10.0068    26.9663   196.0000 </r>
       <r>    -9.9129    17.9141   197.6809 </r>
       <r>    -9.8191    47.6643   202.4844 </r>
       <r>    -9.7253   106.4323   213.9911 </r>
       <r>    -9.6314    24.0851   216.2600 </r>
       <r>    -9.5376    56.0976   221.9999 </r>
       <r>    -9.4438    29.9166   224.8072 </r>
       <r>    -9.3499    50.1151   230.7031 </r>
       <r>    -9.2561     4.5694   232.0001 </r>
       <r>    -9.1623    55.3066   237.1897 </r>
       <r>    -9.0684    32.1956   241.0210 </r>
       <r>    -8.9746    24.1069   244.0000 </r>
       <r>    -8.8807    38.4049   247.6037 </r>
       <r>    -8.7869    26.3348   251.1053 </r>
       <r>    -8.6931    48.1308   256.3205 </r>
       <r>    -8.5992    35.4383   260.0000 </r>
       <r>    -8.5054    42.6286   264.0000 </r>
       <r>    -8.4116     8.1374   264.7636 </r>
       <r>    -8.3177    21.3143   268.0000 </r>
       <r>    -8.2239     5.3732   268.5042 </r>
       <r>    -8.1301    35.7775   272.0581 </r>
       <r>    -8.0362    16.6672   274.3991 </r>
       <r>    -7.9424    18.8056   277.4332 </r>
       <r>    -7.8486    21.2031   279.9231 </r>
       <r>    -7.7547    46.6351   285.6103 </r>
       <r>    -7.6609     4.9308   288.0023 </r>
       <r>    -7.5671    42.5851   291.9982 </r>
       <r>    -7.4732     0.0000   292.0000 </r>
       <r>    -7.3794     0.0000   292.0000 </r>
       <r>    -7.2856    21.3143   294.0000 </r>
       <r>    -7.1917     0.0000   294.0000 </r>
       <r>    -7.0979     0.0000   294.0000 </r>
       <r>    -7.0041     0.0000   294.0000 </r>
       <r>    -6.9102     0.0000   294.0000 </r>
       <r>    -6.8164     0.0000   294.0000 </r>
       <r>    -6.7226     0.0000   294.0000 </r>
       <r>    -6.6287    21.2732   295.9961 </r>
       <r>    -6.5349     0.0000   296.0000 </r>
       <r>    -6.4411    62.3770   301.8531 </r>
       <r>    -6.3472     0.0000   302.0000 </r>
       <r>    -6.2534     0.0000   302.0000 </r>
       <r>    -6.1596    41.6313   305.9064 </r>
       <r>    -6.0657    38.7234   309.6336 </r>
       <r>    -5.9719    57.8907   315.4321 </r>
       <r>    -5.8781    36.2295   319.4040 </r>
       <r>    -5.7842    38.7201   323.4030 </r>
       <r>    -5.6904    52.5339   329.9997 </r>
       <r>    -5.5966    20.9660   331.9673 </r>
       <r>    -5.5027    15.2410   334.0000 </r>
       <r>    -5.4089     0.0000   334.0000 </r>
       <r>    -5.3151    21.3143   336.0000 </r>
       <r>    -5.2212    21.3143   338.0000 </r>
       <r>    -5.1274     0.0000   338.0000 </r>
       <r>    -5.0336    42.6286   342.0000 </r>
       <r>    -4.9397     0.0000   342.0000 </r>
       <r>    -4.8459     0.0000   342.0000 </r>
       <r>    -4.7521     0.0000   342.0000 </r>
       <r>    -4.6582    21.3143   344.0000 </r>
       <r>    -4.5644     0.0000   344.0000 </r>
       <r>    -4.4706     0.0000   344.0000 </r>
       <r>    -4.3767     0.0000   344.0000 </r>
       <r>    -4.2829    21.3143   346.0000 </r>
       <r>    -4.1891     0.0000   346.0000 </r>
       <r>    -4.0952     0.0000   346.0000 </r>
       <r>    -4.0014     0.0000   346.0000 </r>
       <r>    -3.9076     0.0000   346.0000 </r>
       <r>    -3.8137    42.6277   349.9999 </r>
       <r>    -3.7199     0.0000   350.0000 </r>
       <r>    -3.6261     0.0000   350.0000 </r>
       <r>    -3.5322     0.0000   350.0000 </r>
       <r>    -3.4384     0.0000   350.0000 </r>
       <r>    -3.3446     0.0000   350.0000 </r>
       <r>    -3.2507     0.0000   350.0000 </r>
       <r>    -3.1569     0.0000   350.0000 </r>
       <r>    -3.0631     0.0000   350.0000 </r>
       <r>    -2.9692     0.0000   350.0000 </r>
       <r>    -2.8754     0.0000   350.0000 </r>
       <r>    -2.7816     0.0000   350.0000 </r>
       <r>    -2.6877     0.0000   350.0000 </r>
       <r>    -2.5939     0.9814   350.0921 </r>
       <r>    -2.5001    20.9527   354.0000 </r>
       <r>    -2.4062     0.0000   354.0000 </r>
       <r>    -2.3124     0.0000   354.0000 </r>
       <r>    -2.2186     0.0000   354.0000 </r>
       <r>    -2.1247     0.0000   354.0000 </r>
       <r>    -2.0309     0.0000   354.0000 </r>
       <r>    -1.9371     0.0000   354.0000 </r>
       <r>    -1.8432     0.0000   354.0000 </r>
       <r>    -1.7494     0.0000   354.0000 </r>
       <r>    -1.6556     0.0000   354.0000 </r>
       <r>    -1.5617     0.0000   354.0000 </r>
       <r>    -1.4679     0.0000   354.0000 </r>
       <r>    -1.3741     0.0000   354.0000 </r>
       <r>    -1.2802    21.3256   356.0011 </r>
       <r>    -1.1864    42.6173   360.0000 </r>
       <r>    -1.0926     0.0000   360.0000 </r>
       <r>    -0.9987     0.0000   360.0000 </r>
       <r>    -0.9049   100.0918   369.3920 </r>
       <r>    -0.8110    59.2354   376.0000 </r>
       <r>    -0.7172     0.0000   376.0000 </r>
       <r>    -0.6234     0.0000   376.0000 </r>
       <r>    -0.5295     0.0000   376.0000 </r>
       <r>    -0.4357     0.0000   376.0000 </r>
       <r>    -0.3419     2.9274   376.2747 </r>
       <r>    -0.2480    33.7147   380.0002 </r>
       <r>    -0.1542    41.3765   383.8827 </r>
       <r>    -0.0604    21.9977   386.0641 </r>
       <r>     0.0335     0.0156   388.0015 </r>
       <r>     0.1273    23.3250   390.1901 </r>
       <r>     0.2211    25.2589   393.2709 </r>
       <r>     0.3150    37.0174   397.4735 </r>
       <r>     0.4088    46.1401   402.3296 </r>
       <r>     0.5026    37.8916   407.3943 </r>
       <r>     0.5965    43.3150   412.8015 </r>
       <r>     0.6903    57.1694   419.4372 </r>
       <r>     0.7841    73.3283   427.0185 </r>
       <r>     0.8780    74.9460   435.6370 </r>
       <r>     0.9718    78.8230   444.2363 </r>
       <r>     1.0656    68.0301   452.0543 </r>
       <r>     1.1595    85.2637   461.5059 </r>
       <r>     1.2533    75.2944   469.9379 </r>
       <r>     1.3471    74.1071   478.0936 </r>
       <r>     1.4410    11.3182   480.0000 </r>
       <r>     1.5348     0.0000   480.0000 </r>
       <r>     1.6286     0.0000   480.0000 </r>
       <r>     1.7225     0.0000   480.0000 </r>
       <r>     1.8163     0.0000   480.0000 </r>
       <r>     1.9101     0.0000   480.0000 </r>
       <r>     2.0040     0.0000   480.0000 </r>
       <r>     2.0978     0.0000   480.0000 </r>
       <r>     2.1916     0.0000   480.0000 </r>
       <r>     2.2855     0.0000   480.0000 </r>
       <r>     2.3793     0.0000   480.0000 </r>
       <r>     2.4731     0.0000   480.0000 </r>
       <r>     2.5670     0.0000   480.0000 </r>
       <r>     2.6608     0.0000   480.0000 </r>
      </set>
     </set>
    </array>
   </total>
  </dos>
 </calculation>
 <structure name="finalpos" >
  <crystal>
   <varray name="basis" >
    <v>      24.93585635       0.00458111       0.00000000 </v>
    <v>      -0.01224527      24.96110613       0.00000000 </v>
    <v>       0.00000000       0.00000000      20.00000000 </v>
   </varray>
   <i name="volume">  12448.53226106 </i>
   <varray name="rec_basis" >
    <v>       0.04010289       0.00001967       0.00000000 </v>
    <v>      -0.00000736       0.04006232       0.00000000 </v>
    <v>       0.00000000       0.00000000       0.05000000 </v>
   </varray>
  </crystal>
  <varray name="positions" >
   <v>       0.07444345       0.27628172       0.44681933 </v>
   <v>       0.06399533       0.22132994       0.44521123 </v>
   <v>       0.72601828       0.06917953       0.44397207 </v>
   <v>       0.78119674       0.06016748       0.44424531 </v>
   <v>       0.94400487       0.78031710       0.44724982 </v>
   <v>       0.93443591       0.72527298       0.44674272 </v>
   <v>       0.22229074       0.93601855       0.45067414 </v>
   <v>       0.27716408       0.92505790       0.45230463 </v>
   <v>       0.46057716       0.03738160       0.37791825 </v>
   <v>       0.48131901       0.01953139       0.44479738 </v>
   <v>       0.44952520       0.98858539       0.48907783 </v>
   <v>       0.95858281       0.45997934       0.37919832 </v>
   <v>       0.97880572       0.48040116       0.44517032 </v>
   <v>       0.01080959       0.44825959       0.48780406 </v>
   <v>       0.15866165       0.07445410       0.49969596 </v>
   <v>       0.12752104       0.11982951       0.49931440 </v>
   <v>       0.07230510       0.10363847       0.49885950 </v>
   <v>       0.12363248       0.02884923       0.50098353 </v>
   <v>       0.13877389       0.97457055       0.50266209 </v>
   <v>       0.10311642       0.93055849       0.50377990 </v>
   <v>       0.03090592       0.88128653       0.50448217 </v>
   <v>       0.07611874       0.84426231       0.50616794 </v>
   <v>       0.12112712       0.87498611       0.50670491 </v>
   <v>       0.97694097       0.86413452       0.50388676 </v>
   <v>       0.93183992       0.89788972       0.50298688 </v>
   <v>       0.88050524       0.97259332       0.50212269 </v>
   <v>       0.84548315       0.92696497       0.50191741 </v>
   <v>       0.87665445       0.88162267       0.50301406 </v>
   <v>       0.86527261       0.02681340       0.50057657 </v>
   <v>       0.90087062       0.07079953       0.49895560 </v>
   <v>       0.97309105       0.12006105       0.49817194 </v>
   <v>       0.92780279       0.15704905       0.49601544 </v>
   <v>       0.88279071       0.12633758       0.49731316 </v>
   <v>       0.02707813       0.13732354       0.49822195 </v>
   <v>       0.03776319       0.19610289       0.49873507 </v>
   <v>       0.02214867       0.22757387       0.55367586 </v>
   <v>       0.03207736       0.28249445       0.55469087 </v>
   <v>       0.05846753       0.30764769       0.50136895 </v>
   <v>       0.80647885       0.03772350       0.50036901 </v>
   <v>       0.77471050       0.02492097       0.55601772 </v>
   <v>       0.71946243       0.03388442       0.55542329 </v>
   <v>       0.69416269       0.05603151       0.49935689 </v>
   <v>       0.96598451       0.80536836       0.50379445 </v>
   <v>       0.94639696       0.69338225       0.50244273 </v>
   <v>       0.96803637       0.71849889       0.55898758 </v>
   <v>       0.97765917       0.77358114       0.55976911 </v>
   <v>       0.19748278       0.96335810       0.50364066 </v>
   <v>       0.22933180       0.97965267       0.55793936 </v>
   <v>       0.28422526       0.96923951       0.55894493 </v>
   <v>       0.30892095       0.94170004       0.50623012 </v>
   <v>       0.63455618       0.06711742       0.49688687 </v>
   <v>       0.06789372       0.36732704       0.50205786 </v>
   <v>       0.36859313       0.93185555       0.50668089 </v>
   <v>       0.93458333       0.63396480       0.49997260 </v>
   <v>       0.55042717       0.01803178       0.52153551 </v>
   <v>       0.51879176       0.98667225       0.56556730 </v>
   <v>       0.54010914       0.96797509       0.63175738 </v>
   <v>       0.98347536       0.54928059       0.52191811 </v>
   <v>       0.01566128       0.51718442       0.56446276 </v>
   <v>       0.03635106       0.53803559       0.62996999 </v>
   <v>       0.53108274       0.03387996       0.46217693 </v>
   <v>       0.39680726       0.97572859       0.47352961 </v>
   <v>       0.96555448       0.53023725       0.46332873 </v>
   <v>       0.02277605       0.39550853       0.47149224 </v>
   <v>       0.07205015       0.04848757       0.50001271 </v>
   <v>       0.04821073       0.93343921       0.50294018 </v>
   <v>       0.93212556       0.95304211       0.50272550 </v>
   <v>       0.95578932       0.06791505       0.49949577 </v>
   <v>       0.46903216       0.97251359       0.54836675 </v>
   <v>       0.60311436       0.03073978       0.53775705 </v>
   <v>       0.02880371       0.46741269       0.54639714 </v>
   <v>       0.97206694       0.60207400       0.53871819 </v>
   <v>       0.29558529       0.90311309       0.41095459 </v>
   <v>       0.19809891       0.92320662       0.40811971 </v>
   <v>       0.93523229       0.80429222       0.40295851 </v>
   <v>       0.91806260       0.70652369       0.40179994 </v>
   <v>       0.80512834       0.06982389       0.40018599 </v>
   <v>       0.70709271       0.08602508       0.39941267 </v>
   <v>       0.07617799       0.19750659       0.40205649 </v>
   <v>       0.09541887       0.29506575       0.40492752 </v>
   <v>       0.61993291       0.06298435       0.44538987 </v>
   <v>       0.10606351       0.37695029       0.47636993 </v>
   <v>       0.37774042       0.89289387       0.48274905 </v>
   <v>       0.93689352       0.61960664       0.44819804 </v>
   <v>       0.44908004       0.00299880       0.34630269 </v>
   <v>       0.42480228       0.06304200       0.38295794 </v>
   <v>       0.49174797       0.06011261       0.35169768 </v>
   <v>       0.38571647       0.98254804       0.42552008 </v>
   <v>       0.99184393       0.44820681       0.34589614 </v>
   <v>       0.93267373       0.42451409       0.38543336 </v>
   <v>       0.93537933       0.49142913       0.35423711 </v>
   <v>       0.01450359       0.38469710       0.42372970 </v>
   <v>       0.30840475       0.98236221       0.60142784 </v>
   <v>       0.21044441       0.00027502       0.59988496 </v>
   <v>       0.20208474       0.07228190       0.49930724 </v>
   <v>       0.14114462       0.16108187       0.49934085 </v>
   <v>       0.03830825       0.02531986       0.50050096 </v>
   <v>       0.96583687       0.97624147       0.50248798 </v>
   <v>       0.16247466       0.86155919       0.50900306 </v>
   <v>       0.07353630       0.80086094       0.50700628 </v>
   <v>       0.99454768       0.79240145       0.60429115 </v>
   <v>       0.97810127       0.69524761       0.60348625 </v>
   <v>       0.86318221       0.84032062       0.50367612 </v>
   <v>       0.80206913       0.92918800       0.50086620 </v>
   <v>       0.93031038       0.20041927       0.49373806 </v>
   <v>       0.84137090       0.13970719       0.49714692 </v>
   <v>       0.79370737       0.00773275       0.60024323 </v>
   <v>       0.69624492       0.02279280       0.59957663 </v>
   <v>       0.01943232       0.30636110       0.59764329 </v>
   <v>       0.00227354       0.20836423       0.59595589 </v>
   <v>       0.62719554       0.10953627       0.51072698 </v>
   <v>       0.07137758       0.38222996       0.55347105 </v>
   <v>       0.38391041       0.92990358       0.55803383 </v>
   <v>       0.89256445       0.62687169       0.51602187 </v>
   <v>       0.54999192       0.00193782       0.66491105 </v>
   <v>       0.50989299       0.94327209       0.65689082 </v>
   <v>       0.57704482       0.94422335       0.62553526 </v>
   <v>       0.61139163       0.03048733       0.58733415 </v>
   <v>       0.00336117       0.54843371       0.66442798 </v>
   <v>       0.06116659       0.50742481       0.65413117 </v>
   <v>       0.06058224       0.57456061       0.62294208 </v>
   <v>       0.97419613       0.61033518       0.58822065 </v>
  </varray>
 </structure>
</modeling>
