<?xml version="1.0" encoding="ISO-8859-1"?>
<modeling>
 <generator>
  <i name="program" type="string">vasp </i>
  <i name="version" type="string">5.4.4.18Apr17-6-g9f103f2a35  </i>
  <i name="subversion" type="string">(build Jun 07 2020 16:50:00) complex            parallel </i>
  <i name="platform" type="string">LinuxIFC </i>
  <i name="date" type="string">2023 02 20 </i>
  <i name="time" type="string">14:24:37 </i>
 </generator>
 <incar>
  <i type="string" name="SYSTEM">Simulation for cell shape cell volume r</i>
  <i type="int" name="ISTART">     1</i>
  <i type="string" name="PREC">high</i>
  <i type="string" name="ALGO">48</i>
  <i type="int" name="ICHARG">    11</i>
  <i type="int" name="NELM">   200</i>
  <i type="int" name="IBRION">    -1</i>
  <i name="EDIFF">      0.00001000</i>
  <i name="EDIFFG">     -0.01000000</i>
  <i type="int" name="NSW">     0</i>
  <i type="int" name="ISIF">     2</i>
  <i name="ENCUT">    500.00000000</i>
  <i name="POTIM">      0.30000000</i>
  <i type="string" name="LREAL">A</i>
  <i type="int" name="ISMEAR">     0</i>
  <i name="SIGMA">      0.01000000</i>
  <i type="int" name="NWRITE">     0</i>
  <i type="logical" name="LWAVE"> F  </i>
  <i type="logical" name="LCHARG"> F  </i>
  <v type="int" name="KPOINT_BSE">    -1     0     0     0</v>
  <i type="int" name="NELM">   200</i>
  <i type="string" name="GGA">PE</i>
 </incar>
 <structure name="primitive_cell" >
  <crystal>
   <varray name="basis" >
    <v>      21.97356049      -0.01986185       0.00000000 </v>
    <v>     -11.00400256      18.98395544       0.00000000 </v>
    <v>       0.00000000       0.00000000      20.00000000 </v>
   </varray>
   <i name="volume">   8338.53066700 </i>
   <varray name="rec_basis" >
    <v>       0.04553309       0.02639315       0.00000000 </v>
    <v>       0.00004764       0.05270367       0.00000000 </v>
    <v>       0.00000000       0.00000000       0.05000000 </v>
   </varray>
  </crystal>
  <varray name="positions" >
   <v>       0.43327759      -0.05064123       0.48906493 </v>
   <v>       0.46296259       0.01639499       0.47003097 </v>
   <v>       0.47421319      -0.06932777      -0.47768351 </v>
   <v>       0.42976658       0.03175098       0.44232042 </v>
   <v>       0.44620202      -0.13992238      -0.45855291 </v>
   <v>      -0.45466398      -0.02035785      -0.46437995 </v>
   <v>      -0.46606958       0.06546985       0.48376130 </v>
   <v>      -0.42499276       0.04670710      -0.48335746 </v>
   <v>       0.33146125      -0.17092959      -0.43501023 </v>
   <v>       0.37659985      -0.18761632      -0.44311953 </v>
   <v>       0.48095300      -0.15747471      -0.45667721 </v>
   <v>      -0.42129130      -0.03578631      -0.43709337 </v>
   <v>      -0.43840945       0.13621910       0.46542254 </v>
   <v>      -0.47352209       0.15330947       0.46326040 </v>
   <v>       0.35896968      -0.26339810      -0.43901442 </v>
   <v>      -0.36909235       0.18409283       0.44922725 </v>
   <v>       0.46521818      -0.24958951      -0.43761431 </v>
   <v>       0.25126584      -0.29318173      -0.44001415 </v>
   <v>       0.40839651      -0.28564195      -0.43828121 </v>
   <v>      -0.32378934       0.16770627       0.44062427 </v>
   <v>       0.28712324      -0.31404386      -0.43952572 </v>
   <v>      -0.45822234       0.24576895       0.44544843 </v>
   <v>      -0.35190026       0.25974497       0.44497331 </v>
   <v>      -0.40141100       0.28190417       0.44509951 </v>
   <v>       0.38699369      -0.35751790      -0.43913154 </v>
   <v>       0.26471315      -0.38595585      -0.44029020 </v>
   <v>       0.15856829      -0.37024168      -0.45520019 </v>
   <v>       0.31517131      -0.40716943      -0.43971319 </v>
   <v>      -0.49275243      -0.32908056      -0.43595847 </v>
   <v>      -0.28010123       0.31045980       0.44427239 </v>
   <v>      -0.24414926       0.28971214       0.44387029 </v>
   <v>       0.44526862      -0.37469667      -0.44336856 </v>
   <v>       0.14129480      -0.42249903      -0.45933201 </v>
   <v>       0.18911129      -0.44448543      -0.44563409 </v>
   <v>       0.49960032       0.32517273       0.44358616 </v>
   <v>      -0.38008972       0.35379217       0.44548522 </v>
   <v>       0.29424917      -0.46404185      -0.44046335 </v>
   <v>      -0.43836814       0.37096873       0.45020023 </v>
   <v>       0.03835138      -0.39321823      -0.43724535 </v>
   <v>      -0.25778472       0.38232509       0.44476131 </v>
   <v>       0.07080852      -0.46466197      -0.47872245 </v>
   <v>       0.42335412      -0.44443499      -0.45812212 </v>
   <v>      -0.30827165       0.40350038       0.44495954 </v>
   <v>       0.17268635       0.49337138      -0.43977857 </v>
   <v>       0.02245856      -0.44198093      -0.46500804 </v>
   <v>       0.37110437      -0.47966800      -0.45502077 </v>
   <v>      -0.15203077       0.36638834       0.46139004 </v>
   <v>      -0.47478797      -0.43116269       0.48873391 </v>
   <v>       0.05151729       0.47570549       0.48752577 </v>
   <v>      -0.41647226       0.44088612       0.46424362 </v>
   <v>       0.46609738      -0.47206678      -0.47707684 </v>
   <v>      -0.28741739       0.46036316       0.44532222 </v>
   <v>      -0.18209029       0.44074056       0.44876867 </v>
   <v>      -0.13444637       0.41882015       0.46357527 </v>
   <v>      -0.04451139      -0.47876364      -0.48415920 </v>
   <v>       0.48192801       0.42776964      -0.48199835 </v>
   <v>      -0.36428442       0.47619534       0.46053748 </v>
   <v>      -0.45905183       0.46859188       0.48363556 </v>
   <v>      -0.01541918       0.43895708       0.46833305 </v>
   <v>      -0.43750255      -0.46059772       0.46936336 </v>
   <v>      -0.06381938       0.46143178       0.48234605 </v>
   <v>      -0.38932470      -0.42733243       0.44097956 </v>
   <v>      -0.16542103      -0.49724378       0.44100075 </v>
   <v>      -0.03128579       0.39035468       0.44029218 </v>
   <v>       0.39660878       0.42401751      -0.43402953 </v>
   <v>       0.44466706       0.45721705      -0.46260415 </v>
  </varray>
 </structure>
 <varray name="primitive_index" >
  <v type="int" >        1 </v>
  <v type="int" >       33 </v>
  <v type="int" >       43 </v>
  <v type="int" >       55 </v>
  <v type="int" >        8 </v>
  <v type="int" >       44 </v>
  <v type="int" >       34 </v>
  <v type="int" >        7 </v>
  <v type="int" >       13 </v>
  <v type="int" >       40 </v>
  <v type="int" >       62 </v>
  <v type="int" >       61 </v>
  <v type="int" >        2 </v>
  <v type="int" >       56 </v>
  <v type="int" >       39 </v>
  <v type="int" >       42 </v>
  <v type="int" >       49 </v>
  <v type="int" >       50 </v>
  <v type="int" >       22 </v>
  <v type="int" >       16 </v>
  <v type="int" >       23 </v>
  <v type="int" >       52 </v>
  <v type="int" >       41 </v>
  <v type="int" >       29 </v>
  <v type="int" >       21 </v>
  <v type="int" >       19 </v>
  <v type="int" >       64 </v>
  <v type="int" >       20 </v>
  <v type="int" >       15 </v>
  <v type="int" >       30 </v>
  <v type="int" >       53 </v>
  <v type="int" >       25 </v>
  <v type="int" >       10 </v>
  <v type="int" >       24 </v>
  <v type="int" >       18 </v>
  <v type="int" >       28 </v>
  <v type="int" >       51 </v>
  <v type="int" >       32 </v>
  <v type="int" >       63 </v>
  <v type="int" >       26 </v>
  <v type="int" >       45 </v>
  <v type="int" >       12 </v>
  <v type="int" >       27 </v>
  <v type="int" >       14 </v>
  <v type="int" >       46 </v>
  <v type="int" >       66 </v>
  <v type="int" >       58 </v>
  <v type="int" >        5 </v>
  <v type="int" >        3 </v>
  <v type="int" >        6 </v>
  <v type="int" >       47 </v>
  <v type="int" >       54 </v>
  <v type="int" >       31 </v>
  <v type="int" >        4 </v>
  <v type="int" >        9 </v>
  <v type="int" >       11 </v>
  <v type="int" >       60 </v>
  <v type="int" >       38 </v>
  <v type="int" >       35 </v>
  <v type="int" >       37 </v>
  <v type="int" >       36 </v>
  <v type="int" >       59 </v>
  <v type="int" >       17 </v>
  <v type="int" >       57 </v>
  <v type="int" >       65 </v>
  <v type="int" >       48 </v>
 </varray>
 <kpoints>
  <generation param="listgenerated">
   <i name="divisions" type="int">      20 </i>
   <v>       0.00000000       0.00000000       0.00000000 </v>
   <v>       0.50000000       0.00000000       0.00000000 </v>
   <v>       0.33333333       0.33333333       0.00000000 </v>
   <v>       0.00000000       0.00000000       0.00000000 </v>
  </generation>
  <varray name="kpointlist" >
   <v>       0.00000000       0.00000000       0.00000000 </v>
   <v>       0.02631579       0.00000000       0.00000000 </v>
   <v>       0.05263158       0.00000000       0.00000000 </v>
   <v>       0.07894737       0.00000000       0.00000000 </v>
   <v>       0.10526316       0.00000000       0.00000000 </v>
   <v>       0.13157895       0.00000000       0.00000000 </v>
   <v>       0.15789474       0.00000000       0.00000000 </v>
   <v>       0.18421053       0.00000000       0.00000000 </v>
   <v>       0.21052632       0.00000000       0.00000000 </v>
   <v>       0.23684211       0.00000000       0.00000000 </v>
   <v>       0.26315789       0.00000000       0.00000000 </v>
   <v>       0.28947368       0.00000000       0.00000000 </v>
   <v>       0.31578947       0.00000000       0.00000000 </v>
   <v>       0.34210526       0.00000000       0.00000000 </v>
   <v>       0.36842105       0.00000000       0.00000000 </v>
   <v>       0.39473684       0.00000000       0.00000000 </v>
   <v>       0.42105263       0.00000000       0.00000000 </v>
   <v>       0.44736842       0.00000000       0.00000000 </v>
   <v>       0.47368421       0.00000000       0.00000000 </v>
   <v>       0.50000000       0.00000000       0.00000000 </v>
   <v>       0.50000000       0.00000000       0.00000000 </v>
   <v>       0.49122807       0.01754386       0.00000000 </v>
   <v>       0.48245614       0.03508772       0.00000000 </v>
   <v>       0.47368421       0.05263158       0.00000000 </v>
   <v>       0.46491228       0.07017544       0.00000000 </v>
   <v>       0.45614035       0.08771930       0.00000000 </v>
   <v>       0.44736842       0.10526316       0.00000000 </v>
   <v>       0.43859649       0.12280702       0.00000000 </v>
   <v>       0.42982456       0.14035088       0.00000000 </v>
   <v>       0.42105263       0.15789474       0.00000000 </v>
   <v>       0.41228070       0.17543860       0.00000000 </v>
   <v>       0.40350877       0.19298246       0.00000000 </v>
   <v>       0.39473684       0.21052632       0.00000000 </v>
   <v>       0.38596491       0.22807018       0.00000000 </v>
   <v>       0.37719298       0.24561404       0.00000000 </v>
   <v>       0.36842105       0.26315789       0.00000000 </v>
   <v>       0.35964912       0.28070175       0.00000000 </v>
   <v>       0.35087719       0.29824561       0.00000000 </v>
   <v>       0.34210526       0.31578947       0.00000000 </v>
   <v>       0.33333333       0.33333333       0.00000000 </v>
   <v>       0.33333333       0.33333333       0.00000000 </v>
   <v>       0.31578947       0.31578947       0.00000000 </v>
   <v>       0.29824561       0.29824561       0.00000000 </v>
   <v>       0.28070175       0.28070175       0.00000000 </v>
   <v>       0.26315789       0.26315789       0.00000000 </v>
   <v>       0.24561404       0.24561404       0.00000000 </v>
   <v>       0.22807018       0.22807018       0.00000000 </v>
   <v>       0.21052632       0.21052632       0.00000000 </v>
   <v>       0.19298246       0.19298246       0.00000000 </v>
   <v>       0.17543860       0.17543860       0.00000000 </v>
   <v>       0.15789474       0.15789474       0.00000000 </v>
   <v>       0.14035088       0.14035088       0.00000000 </v>
   <v>       0.12280702       0.12280702       0.00000000 </v>
   <v>       0.10526316       0.10526316       0.00000000 </v>
   <v>       0.08771930       0.08771930       0.00000000 </v>
   <v>       0.07017544       0.07017544       0.00000000 </v>
   <v>       0.05263158       0.05263158       0.00000000 </v>
   <v>       0.03508772       0.03508772       0.00000000 </v>
   <v>       0.01754386       0.01754386       0.00000000 </v>
   <v>       0.00000000       0.00000000       0.00000000 </v>
  </varray>
  <varray name="weights" >
   <v>       0.01666667 </v>
   <v>       0.01666667 </v>
   <v>       0.01666667 </v>
   <v>       0.01666667 </v>
   <v>       0.01666667 </v>
   <v>       0.01666667 </v>
   <v>       0.01666667 </v>
   <v>       0.01666667 </v>
   <v>       0.01666667 </v>
   <v>       0.01666667 </v>
   <v>       0.01666667 </v>
   <v>       0.01666667 </v>
   <v>       0.01666667 </v>
   <v>       0.01666667 </v>
   <v>       0.01666667 </v>
   <v>       0.01666667 </v>
   <v>       0.01666667 </v>
   <v>       0.01666667 </v>
   <v>       0.01666667 </v>
   <v>       0.01666667 </v>
   <v>       0.01666667 </v>
   <v>       0.01666667 </v>
   <v>       0.01666667 </v>
   <v>       0.01666667 </v>
   <v>       0.01666667 </v>
   <v>       0.01666667 </v>
   <v>       0.01666667 </v>
   <v>       0.01666667 </v>
   <v>       0.01666667 </v>
   <v>       0.01666667 </v>
   <v>       0.01666667 </v>
   <v>       0.01666667 </v>
   <v>       0.01666667 </v>
   <v>       0.01666667 </v>
   <v>       0.01666667 </v>
   <v>       0.01666667 </v>
   <v>       0.01666667 </v>
   <v>       0.01666667 </v>
   <v>       0.01666667 </v>
   <v>       0.01666667 </v>
   <v>       0.01666667 </v>
   <v>       0.01666667 </v>
   <v>       0.01666667 </v>
   <v>       0.01666667 </v>
   <v>       0.01666667 </v>
   <v>       0.01666667 </v>
   <v>       0.01666667 </v>
   <v>       0.01666667 </v>
   <v>       0.01666667 </v>
   <v>       0.01666667 </v>
   <v>       0.01666667 </v>
   <v>       0.01666667 </v>
   <v>       0.01666667 </v>
   <v>       0.01666667 </v>
   <v>       0.01666667 </v>
   <v>       0.01666667 </v>
   <v>       0.01666667 </v>
   <v>       0.01666667 </v>
   <v>       0.01666667 </v>
   <v>       0.01666667 </v>
  </varray>
 </kpoints>
 <parameters>
  <separator name="general" >
   <i type="string" name="SYSTEM">Simulation for cell shape cell volume r</i>
   <i type="logical" name="LCOMPAT"> F  </i>
  </separator>
  <separator name="electronic" >
   <i type="string" name="PREC">high</i>
   <i name="ENMAX">    500.00000000</i>
   <i name="ENAUG">    644.87300000</i>
   <i name="EDIFF">      0.00001000</i>
   <i type="int" name="IALGO">    38</i>
   <i type="int" name="IWAVPR">    10</i>
   <i type="int" name="NBANDS">   160</i>
   <i name="NELECT">    234.00000000</i>
   <i type="int" name="TURBO">     0</i>
   <i type="int" name="IRESTART">     0</i>
   <i type="int" name="NREBOOT">     0</i>
   <i type="int" name="NMIN">     0</i>
   <i name="EREF">      0.00000000</i>
   <separator name="electronic smearing" >
    <i type="int" name="ISMEAR">     0</i>
    <i name="SIGMA">      0.01000000</i>
    <i name="KSPACING">      0.50000000</i>
    <i type="logical" name="KGAMMA"> T  </i>
   </separator>
   <separator name="electronic projectors" >
    <i type="logical" name="LREAL"> T  </i>
    <v name="ROPT">     -0.00040000     -0.00040000     -0.00040000     -0.00040000</v>
    <i type="int" name="LMAXPAW">  -100</i>
    <i type="int" name="LMAXMIX">     2</i>
    <i type="logical" name="NLSPLINE"> F  </i>
   </separator>
   <separator name="electronic startup" >
    <i type="int" name="ISTART">     1</i>
    <i type="int" name="ICHARG">    11</i>
    <i type="int" name="INIWAV">     1</i>
   </separator>
   <separator name="electronic spin" >
    <i type="int" name="ISPIN">     1</i>
    <i type="logical" name="LNONCOLLINEAR"> F  </i>
    <v name="MAGMOM">      1.00000000      1.00000000      1.00000000      1.00000000      1.00000000      1.00000000      1.00000000      1.00000000      1.00000000      1.00000000      1.00000000      1.00000000      1.00000000      1.00000000      1.00000000      1.00000000      1.00000000      1.00000000      1.00000000      1.00000000
      1.00000000      1.00000000      1.00000000      1.00000000      1.00000000      1.00000000      1.00000000      1.00000000      1.00000000      1.00000000      1.00000000      1.00000000      1.00000000      1.00000000      1.00000000      1.00000000      1.00000000      1.00000000      1.00000000      1.00000000
      1.00000000      1.00000000      1.00000000      1.00000000      1.00000000      1.00000000      1.00000000      1.00000000      1.00000000      1.00000000      1.00000000      1.00000000      1.00000000      1.00000000      1.00000000      1.00000000      1.00000000      1.00000000      1.00000000      1.00000000
      1.00000000      1.00000000      1.00000000      1.00000000      1.00000000      1.00000000</v>
    <i name="NUPDOWN">     -1.00000000</i>
    <i type="logical" name="LSORBIT"> F  </i>
    <v name="SAXIS">      0.00000000      0.00000000      1.00000000</v>
    <i type="logical" name="LSPIRAL"> F  </i>
    <v name="QSPIRAL">      0.00000000      0.00000000      0.00000000</v>
    <i type="logical" name="LZEROZ"> F  </i>
   </separator>
   <separator name="electronic exchange-correlation" >
    <i type="logical" name="LASPH"> F  </i>
    <i type="logical" name="LMETAGGA"> F  </i>
   </separator>
   <separator name="electronic convergence" >
    <i type="int" name="NELM">   200</i>
    <i type="int" name="NELMDL">     0</i>
    <i type="int" name="NELMIN">     2</i>
    <i name="ENINI">    500.00000000</i>
    <separator name="electronic convergence detail" >
     <i type="logical" name="LDIAG"> T  </i>
     <i type="logical" name="LSUBROT"> F  </i>
     <i name="WEIMIN">      0.00000000</i>
     <i name="EBREAK">      0.00000002</i>
     <i name="DEPER">      0.30000000</i>
     <i type="int" name="NRMM">     4</i>
     <i name="TIME">      0.40000000</i>
    </separator>
   </separator>
   <separator name="electronic mixer" >
    <i name="AMIX">      0.40000000</i>
    <i name="BMIX">      1.00000000</i>
    <i name="AMIN">      0.10000000</i>
    <i name="AMIX_MAG">      1.60000000</i>
    <i name="BMIX_MAG">      1.00000000</i>
    <separator name="electronic mixer details" >
     <i type="int" name="IMIX">     4</i>
     <i type="logical" name="MIXFIRST"> F  </i>
     <i type="int" name="MAXMIX">   -45</i>
     <i name="WC">    100.00000000</i>
     <i type="int" name="INIMIX">     1</i>
     <i type="int" name="MIXPRE">     1</i>
     <i type="int" name="MREMOVE">     5</i>
    </separator>
   </separator>
   <separator name="electronic dipolcorrection" >
    <i type="logical" name="LDIPOL"> F  </i>
    <i type="logical" name="LMONO"> F  </i>
    <i type="int" name="IDIPOL">     0</i>
    <i name="EPSILON">      1.00000000</i>
    <v name="DIPOL">   -100.00000000   -100.00000000   -100.00000000</v>
    <i name="EFIELD">      0.00000000</i>
   </separator>
  </separator>
  <separator name="grids" >
   <i type="int" name="NGX">   160</i>
   <i type="int" name="NGY">   160</i>
   <i type="int" name="NGZ">   150</i>
   <i type="int" name="NGXF">   250</i>
   <i type="int" name="NGYF">   250</i>
   <i type="int" name="NGZF">   224</i>
   <i type="logical" name="ADDGRID"> F  </i>
  </separator>
  <separator name="ionic" >
   <i type="int" name="NSW">     0</i>
   <i type="int" name="IBRION">    -1</i>
   <i type="int" name="MDALGO">     0</i>
   <i type="int" name="ISIF">     2</i>
   <i name="PSTRESS">      0.00000000</i>
   <i name="EDIFFG">     -0.01000000</i>
   <i type="int" name="NFREE">     0</i>
   <i name="POTIM">      0.30000000</i>
   <i name="SMASS">     -3.00000000</i>
   <i name="SCALEE">      1.00000000</i>
  </separator>
  <separator name="ionic md" >
   <i name="TEBEG">      0.00010000</i>
   <i name="TEEND">      0.00010000</i>
   <i type="int" name="NBLOCK">     1</i>
   <i type="int" name="KBLOCK">     1</i>
   <i type="int" name="NPACO">   256</i>
   <i name="APACO">     16.00000000</i>
  </separator>
  <separator name="symmetry" >
   <i type="int" name="ISYM">     2</i>
   <i name="SYMPREC">      0.00001000</i>
  </separator>
  <separator name="dos" >
   <i type="int" name="LORBIT">     0</i>
   <v name="RWIGS">     -1.00000000     -1.00000000     -1.00000000     -1.00000000</v>
   <i type="int" name="NEDOS">   301</i>
   <i name="EMIN">     10.00000000</i>
   <i name="EMAX">    -10.00000000</i>
   <i name="EFERMI">      0.00000000</i>
  </separator>
  <separator name="writing" >
   <i type="int" name="NWRITE">     0</i>
   <i type="logical" name="LWAVE"> F  </i>
   <i type="logical" name="LDOWNSAMPLE"> F  </i>
   <i type="logical" name="LCHARG"> F  </i>
   <i type="logical" name="LPARD"> F  </i>
   <i type="logical" name="LVTOT"> F  </i>
   <i type="logical" name="LVHAR"> F  </i>
   <i type="logical" name="LELF"> F  </i>
   <i type="logical" name="LOPTICS"> F  </i>
   <v name="STM">      0.00000000      0.00000000      0.00000000      0.00000000      0.00000000      0.00000000      0.00000000</v>
  </separator>
  <separator name="performance" >
   <i type="int" name="NPAR">    16</i>
   <i type="int" name="NSIM">     4</i>
   <i type="int" name="NBLK">    -1</i>
   <i type="logical" name="LPLANE"> T  </i>
   <i type="logical" name="LSCALAPACK"> T  </i>
   <i type="logical" name="LSCAAWARE"> F  </i>
   <i type="logical" name="LSCALU"> F  </i>
   <i type="logical" name="LASYNC"> F  </i>
   <i type="logical" name="LORBITALREAL"> F  </i>
  </separator>
  <separator name="miscellaneous" >
   <i type="int" name="IDIOT">     3</i>
   <i type="int" name="ISPECIAL">     0</i>
   <i type="logical" name="LMUSIC"> F  </i>
   <v name="POMASS">     14.00100000     16.00000000     12.01100000      1.00000000</v>
   <v name="DARWINR">      0.00000000      0.00000000      0.00000000      0.00000000</v>
   <v name="DARWINV">      1.00000000      1.00000000      1.00000000      1.00000000</v>
   <i type="logical" name="LCORR"> T  </i>
  </separator>
  <i type="logical" name="GGA_COMPAT"> T  </i>
  <i type="logical" name="LBERRY"> F  </i>
  <i type="int" name="ICORELEVEL">     0</i>
  <i type="logical" name="LDAU"> F  </i>
  <i type="int" name="I_CONSTRAINED_M">     0</i>
  <separator name="electronic exchange-correlation" >
   <i type="string" name="GGA">PE</i>
   <i type="int" name="VOSKOWN">     0</i>
   <i type="logical" name="LHFCALC"> F  </i>
   <i type="string" name="PRECFOCK"></i>
   <i type="logical" name="LSYMGRAD"> F  </i>
   <i type="logical" name="LHFONE"> F  </i>
   <i type="logical" name="LRHFCALC"> F  </i>
   <i type="logical" name="LTHOMAS"> F  </i>
   <i type="logical" name="LMODELHF"> F  </i>
   <i name="ENCUT4O">     -1.00000000</i>
   <i type="int" name="EXXOEP">     0</i>
   <i type="int" name="FOURORBIT">     0</i>
   <i name="AEXX">      0.00000000</i>
   <i name="HFALPHA">      0.00000000</i>
   <i name="MCALPHA">      0.00000000</i>
   <i name="ALDAX">      1.00000000</i>
   <i name="AGGAX">      1.00000000</i>
   <i name="ALDAC">      1.00000000</i>
   <i name="AGGAC">      1.00000000</i>
   <i type="int" name="NKREDX">     1</i>
   <i type="int" name="NKREDY">     1</i>
   <i type="int" name="NKREDZ">     1</i>
   <i type="logical" name="SHIFTRED"> F  </i>
   <i type="logical" name="ODDONLY"> F  </i>
   <i type="logical" name="EVENONLY"> F  </i>
   <i type="int" name="LMAXFOCK">     0</i>
   <i type="int" name="NMAXFOCKAE">     0</i>
   <i type="logical" name="LFOCKAEDFT"> F  </i>
   <i name="HFSCREEN">      0.00000000</i>
   <i name="HFSCREENC">      0.00000000</i>
   <i type="int" name="NBANDSGWLOW">     0</i>
  </separator>
  <separator name="vdW DFT" >
   <i type="logical" name="LUSE_VDW"> F  </i>
   <i name="Zab_VDW">     -0.84910000</i>
   <i name="PARAM1">      0.12340000</i>
   <i name="PARAM2">      1.00000000</i>
   <i name="PARAM3">      0.00000000</i>
  </separator>
  <separator name="model GW" >
   <i type="int" name="MODEL_GW">     0</i>
   <i name="MODEL_EPS0">     75.80482425</i>
   <i name="MODEL_ALPHA">      1.00000000</i>
  </separator>
  <separator name="linear response parameters" >
   <i type="logical" name="LEPSILON"> F  </i>
   <i type="logical" name="LRPA"> F  </i>
   <i type="logical" name="LNABLA"> F  </i>
   <i type="logical" name="LVEL"> F  </i>
   <i type="int" name="KINTER">     0</i>
   <i name="CSHIFT">      0.10000000</i>
   <i name="OMEGAMAX">     -1.00000000</i>
   <i name="DEG_THRESHOLD">      0.00200000</i>
   <i name="RTIME">     -0.10000000</i>
   <i name="WPLASMAI">      0.00000000</i>
   <v name="DFIELD">      0.00000000      0.00000000      0.00000000</v>
   <v name="WPLASMA">      0.00000000      0.00000000      0.00000000      0.00000000      0.00000000      0.00000000      0.00000000      0.00000000      0.00000000</v>
  </separator>
  <separator name="orbital magnetization" >
   <i type="logical" name="NUCIND"> F  </i>
   <v name="MAGPOS">      0.00000000      0.00000000      0.00000000</v>
   <i type="logical" name="LNICSALL"> T  </i>
   <i type="logical" name="ORBITALMAG"> F  </i>
   <i type="logical" name="LMAGBLOCH"> F  </i>
   <i type="logical" name="LCHIMAG"> F  </i>
   <i type="logical" name="LGAUGE"> T  </i>
   <i type="int" name="MAGATOM">     0</i>
   <v name="MAGDIPOL">      0.00000000      0.00000000      0.00000000</v>
   <v name="AVECCONST">      0.00000000      0.00000000      0.00000000</v>
  </separator>
  <separator name="response functions" >
   <i type="logical" name="LADDER"> F  </i>
   <i type="logical" name="LRPAFORCE"> F  </i>
   <i type="logical" name="LFXC"> F  </i>
   <i type="logical" name="LHARTREE"> T  </i>
   <i type="int" name="IBSE">     0</i>
   <v type="int" name="KPOINT">    -1     0     0     0</v>
   <i type="logical" name="LTCTE"> F  </i>
   <i type="logical" name="LTETE"> F  </i>
   <i type="logical" name="LTRIPLET"> F  </i>
   <i type="logical" name="LFXCEPS"> F  </i>
   <i type="logical" name="LFXHEG"> F  </i>
   <i type="int" name="NATURALO">     2</i>
   <i type="logical" name="L2ORDER"> F  </i>
   <i type="logical" name="LMP2LT"> F  </i>
   <i type="logical" name="LUSEW"> F  </i>
   <i name="ENCUTGW">     -2.00000000</i>
   <i name="ENCUTGWSOFT">     -2.00000000</i>
   <i name="ENCUTLF">     -1.00000000</i>
   <i type="int" name="LMAXMP2">    -1</i>
   <i name="SCISSOR">      0.00000000</i>
   <i type="int" name="NOMEGA">     0</i>
   <i type="int" name="NOMEGAR">     0</i>
   <i type="int" name="NBANDSGW">    -1</i>
   <i type="int" name="NBANDSO">    -1</i>
   <i type="int" name="NBANDSV">    -1</i>
   <i type="int" name="NELM">   200</i>
   <i type="int" name="NELMHF">     1</i>
   <i type="int" name="DIM">     3</i>
   <i type="int" name="ANTIRES">     0</i>
   <i name="OMEGAMAX">    -30.00000000</i>
   <i name="OMEGAMIN">    -30.00000000</i>
   <i name="OMEGATL">   -200.00000000</i>
   <i type="int" name="OMEGAGRID">   140</i>
   <i name="CSHIFT">     -0.10000000</i>
   <i type="logical" name="SELFENERGY"> F  </i>
   <i type="logical" name="LSPECTRAL"> F  </i>
   <i type="logical" name="LSPECTRALGW"> F  </i>
   <i type="logical" name="LSINGLES"> F  </i>
   <i type="logical" name="LFERMIGW"> F  </i>
   <i type="logical" name="ODDONLYGW"> F  </i>
   <i type="logical" name="EVENONLYGW"> F  </i>
   <i type="int" name="NKREDLFX">     1</i>
   <i type="int" name="NKREDLFY">     1</i>
   <i type="int" name="NKREDLFZ">     1</i>
   <i type="int" name="MAXMEM">  2800</i>
   <i type="int" name="TELESCOPE">     0</i>
   <i type="int" name="TAUPAR">     1</i>
   <i type="int" name="OMEGAPAR">    -1</i>
   <i name="LAMBDA">      1.00000000</i>
  </separator>
  <separator name="External order field" >
   <i name="OFIELD_KAPPA">      0.00000000</i>
   <v name="OFIELD_K">      0.00000000      0.00000000      0.00000000</v>
   <i name="OFIELD_Q6_NEAR">      0.00000000</i>
   <i name="OFIELD_Q6_FAR">      0.00000000</i>
   <i name="OFIELD_A">      0.00000000</i>
  </separator>
  <separator name="solvation model" >
   <i type="logical" name="LSOL"> F  </i>
  </separator>
 </parameters>
 <atominfo>
  <atoms>      66 </atoms>
  <types>       4 </types>
  <array name="atoms" >
   <dimension dim="1">ion</dimension>
   <field type="string">element</field>
   <field type="int">atomtype</field>
   <set>
    <rc><c>N </c><c>   1</c></rc>
    <rc><c>N </c><c>   1</c></rc>
    <rc><c>N </c><c>   1</c></rc>
    <rc><c>N </c><c>   1</c></rc>
    <rc><c>N </c><c>   1</c></rc>
    <rc><c>N </c><c>   1</c></rc>
    <rc><c>N </c><c>   1</c></rc>
    <rc><c>N </c><c>   1</c></rc>
    <rc><c>N </c><c>   1</c></rc>
    <rc><c>N </c><c>   1</c></rc>
    <rc><c>N </c><c>   1</c></rc>
    <rc><c>N </c><c>   1</c></rc>
    <rc><c>O </c><c>   2</c></rc>
    <rc><c>O </c><c>   2</c></rc>
    <rc><c>O </c><c>   2</c></rc>
    <rc><c>O </c><c>   2</c></rc>
    <rc><c>O </c><c>   2</c></rc>
    <rc><c>O </c><c>   2</c></rc>
    <rc><c>C </c><c>   3</c></rc>
    <rc><c>C </c><c>   3</c></rc>
    <rc><c>C </c><c>   3</c></rc>
    <rc><c>C </c><c>   3</c></rc>
    <rc><c>C </c><c>   3</c></rc>
    <rc><c>C </c><c>   3</c></rc>
    <rc><c>C </c><c>   3</c></rc>
    <rc><c>C </c><c>   3</c></rc>
    <rc><c>C </c><c>   3</c></rc>
    <rc><c>C </c><c>   3</c></rc>
    <rc><c>C </c><c>   3</c></rc>
    <rc><c>C </c><c>   3</c></rc>
    <rc><c>C </c><c>   3</c></rc>
    <rc><c>C </c><c>   3</c></rc>
    <rc><c>C </c><c>   3</c></rc>
    <rc><c>C </c><c>   3</c></rc>
    <rc><c>C </c><c>   3</c></rc>
    <rc><c>C </c><c>   3</c></rc>
    <rc><c>C </c><c>   3</c></rc>
    <rc><c>C </c><c>   3</c></rc>
    <rc><c>C </c><c>   3</c></rc>
    <rc><c>C </c><c>   3</c></rc>
    <rc><c>C </c><c>   3</c></rc>
    <rc><c>C </c><c>   3</c></rc>
    <rc><c>C </c><c>   3</c></rc>
    <rc><c>C </c><c>   3</c></rc>
    <rc><c>C </c><c>   3</c></rc>
    <rc><c>C </c><c>   3</c></rc>
    <rc><c>C </c><c>   3</c></rc>
    <rc><c>C </c><c>   3</c></rc>
    <rc><c>H </c><c>   4</c></rc>
    <rc><c>H </c><c>   4</c></rc>
    <rc><c>H </c><c>   4</c></rc>
    <rc><c>H </c><c>   4</c></rc>
    <rc><c>H </c><c>   4</c></rc>
    <rc><c>H </c><c>   4</c></rc>
    <rc><c>H </c><c>   4</c></rc>
    <rc><c>H </c><c>   4</c></rc>
    <rc><c>H </c><c>   4</c></rc>
    <rc><c>H </c><c>   4</c></rc>
    <rc><c>H </c><c>   4</c></rc>
    <rc><c>H </c><c>   4</c></rc>
    <rc><c>H </c><c>   4</c></rc>
    <rc><c>H </c><c>   4</c></rc>
    <rc><c>H </c><c>   4</c></rc>
    <rc><c>H </c><c>   4</c></rc>
    <rc><c>H </c><c>   4</c></rc>
    <rc><c>H </c><c>   4</c></rc>
   </set>
  </array>
  <array name="atomtypes" >
   <dimension dim="1">type</dimension>
   <field type="int">atomspertype</field>
   <field type="string">element</field>
   <field>mass</field>
   <field>valence</field>
   <field type="string">pseudopotential</field>
   <set>
    <rc><c>  12</c><c>N </c><c>     14.00100000</c><c>      5.00000000</c><c>  PAW_PBE N 08Apr2002                   </c></rc>
    <rc><c>   6</c><c>O </c><c>     16.00000000</c><c>      6.00000000</c><c>  PAW_PBE O 08Apr2002                   </c></rc>
    <rc><c>  30</c><c>C </c><c>     12.01100000</c><c>      4.00000000</c><c>  PAW_PBE C 08Apr2002                   </c></rc>
    <rc><c>  18</c><c>H </c><c>      1.00000000</c><c>      1.00000000</c><c>  PAW_PBE H 15Jun2001                   </c></rc>
   </set>
  </array>
 </atominfo>
 <structure name="initialpos" >
  <crystal>
   <varray name="basis" >
    <v>      21.97356049      -0.01986185       0.00000000 </v>
    <v>     -11.00400256      18.98395544       0.00000000 </v>
    <v>       0.00000000       0.00000000      20.00000000 </v>
   </varray>
   <i name="volume">   8338.53066700 </i>
   <varray name="rec_basis" >
    <v>       0.04553309       0.02639315       0.00000000 </v>
    <v>       0.00004764       0.05270367       0.00000000 </v>
    <v>       0.00000000       0.00000000       0.05000000 </v>
   </varray>
  </crystal>
  <varray name="positions" >
   <v>       0.43327759       0.94935877       0.48906493 </v>
   <v>       0.56159055       0.13621910       0.46542254 </v>
   <v>       0.05151729       0.47570549       0.48752577 </v>
   <v>       0.86555363       0.41882015       0.46357527 </v>
   <v>       0.52521203       0.56883731       0.48873391 </v>
   <v>       0.58352774       0.44088612       0.46424362 </v>
   <v>       0.57500724       0.04670710       0.51664254 </v>
   <v>       0.44620202       0.86007762       0.54144709 </v>
   <v>       0.95548861       0.52123636       0.51584080 </v>
   <v>       0.14129480       0.57750097       0.54066799 </v>
   <v>       0.48192801       0.42776964       0.51800165 </v>
   <v>       0.42335412       0.55556501       0.54187788 </v>
   <v>       0.33146125       0.82907041       0.56498977 </v>
   <v>       0.17268635       0.49337138       0.56022143 </v>
   <v>       0.50724757       0.67091944       0.56404153 </v>
   <v>       0.67621066       0.16770627       0.44062427 </v>
   <v>       0.83457897       0.50275622       0.44100075 </v>
   <v>       0.49960032       0.32517273       0.44358616 </v>
   <v>       0.26471315       0.61404415       0.55970980 </v>
   <v>       0.31517131       0.59283057       0.56028681 </v>
   <v>       0.38699369       0.64248210       0.56086846 </v>
   <v>       0.40839651       0.71435805       0.56171879 </v>
   <v>       0.28712324       0.68595614       0.56047428 </v>
   <v>       0.18911129       0.55551457       0.55436591 </v>
   <v>       0.44526862       0.62530333       0.55663144 </v>
   <v>       0.74221528       0.38232509       0.44476131 </v>
   <v>       0.69172835       0.40350038       0.44495954 </v>
   <v>       0.61991028       0.35379217       0.44548522 </v>
   <v>       0.59858900       0.28190417       0.44509951 </v>
   <v>       0.71989877       0.31045980       0.44427239 </v>
   <v>       0.81790971       0.44074056       0.44876867 </v>
   <v>       0.56163186       0.37096873       0.45020023 </v>
   <v>       0.46296259       0.01639499       0.47003097 </v>
   <v>       0.53393042       0.06546985       0.48376130 </v>
   <v>       0.98458082       0.43895708       0.46833305 </v>
   <v>       0.93618062       0.46143178       0.48234605 </v>
   <v>       0.56249745       0.53940228       0.46936336 </v>
   <v>       0.54094817       0.46859188       0.48363556 </v>
   <v>       0.35896968       0.73660190       0.56098558 </v>
   <v>       0.37659985       0.81238368       0.55688047 </v>
   <v>       0.64809974       0.25974497       0.44497331 </v>
   <v>       0.63090765       0.18409283       0.44922725 </v>
   <v>       0.47421319       0.93067223       0.52231649 </v>
   <v>       0.54533602       0.97964215       0.53562005 </v>
   <v>       0.07080852       0.53533803       0.52127755 </v>
   <v>       0.02245856       0.55801907       0.53499196 </v>
   <v>       0.46609738       0.52793322       0.52292316 </v>
   <v>       0.44466706       0.45721705       0.53739585 </v>
   <v>       0.46521818       0.75041049       0.56238569 </v>
   <v>       0.25126584       0.70681827       0.55998585 </v>
   <v>       0.29424917       0.53595815       0.55953665 </v>
   <v>       0.54177766       0.24576895       0.44544843 </v>
   <v>       0.75585074       0.28971214       0.44387029 </v>
   <v>       0.71258261       0.46036316       0.44532222 </v>
   <v>       0.42976658       0.03175098       0.44232042 </v>
   <v>       0.52647791       0.15330947       0.46326040 </v>
   <v>       0.96871421       0.39035468       0.44029218 </v>
   <v>       0.84796923       0.36638834       0.46139004 </v>
   <v>       0.61067530       0.57266757       0.44097956 </v>
   <v>       0.63571558       0.47619534       0.46053748 </v>
   <v>       0.57870870       0.96421369       0.56290663 </v>
   <v>       0.48095300       0.84252529       0.54332279 </v>
   <v>       0.03835138       0.60678177       0.56275465 </v>
   <v>       0.15856829       0.62975832       0.54479981 </v>
   <v>       0.39660878       0.42401751       0.56597047 </v>
   <v>       0.37110437       0.52033200       0.54497923 </v>
  </varray>
 </structure>
 <calculation>
  <scstep>
   <time name="dav">  199.78  201.86</time>
   <time name="total">  199.92  202.00</time>
   <energy>
    <i name="alphaZ">     29.67598478 </i>
    <i name="ewald">  25311.24989188 </i>
    <i name="hartreedc"> -33878.74499276 </i>
    <i name="XCdc">    876.80377451 </i>
    <i name="pawpsdc">  22309.00899964 </i>
    <i name="pawaedc"> -22358.90137665 </i>
    <i name="eentropy">     -0.00000000 </i>
    <i name="bandstr">  -3171.02479978 </i>
    <i name="atom">  10407.76518907 </i>
    <i name="e_fr_energy">   -474.16732930 </i>
    <i name="e_wo_entrp">   -474.16732930 </i>
    <i name="e_0_energy">   -474.16732930 </i>
   </energy>
  </scstep>
  <scstep>
   <time name="dav">  226.09  228.45</time>
   <time name="total">  226.09  228.45</time>
   <energy>
    <i name="e_fr_energy">   -474.79551437 </i>
    <i name="e_wo_entrp">   -474.79551437 </i>
    <i name="e_0_energy">   -474.79551437 </i>
   </energy>
  </scstep>
  <scstep>
   <time name="dav">  259.51  262.20</time>
   <time name="total">  259.51  262.20</time>
   <energy>
    <i name="e_fr_energy">   -474.81301273 </i>
    <i name="e_wo_entrp">   -474.81301273 </i>
    <i name="e_0_energy">   -474.81301273 </i>
   </energy>
  </scstep>
  <scstep>
   <time name="dav">  224.64  227.00</time>
   <time name="total">  224.64  227.01</time>
   <energy>
    <i name="e_fr_energy">   -474.81325385 </i>
    <i name="e_wo_entrp">   -474.81325385 </i>
    <i name="e_0_energy">   -474.81325385 </i>
   </energy>
  </scstep>
  <scstep>
   <time name="dav">  218.82  221.13</time>
   <time name="total">  218.82  221.13</time>
   <energy>
    <i name="e_fr_energy">   -474.81326481 </i>
    <i name="e_wo_entrp">   -474.81326481 </i>
    <i name="e_0_energy">   -474.81326481 </i>
   </energy>
  </scstep>
  <scstep>
   <time name="dav">  175.51  177.29</time>
   <time name="total">  175.51  177.29</time>
   <energy>
    <i name="alphaZ">     29.67598478 </i>
    <i name="ewald">  25311.24989188 </i>
    <i name="hartreedc"> -33878.74499276 </i>
    <i name="XCdc">    876.80377451 </i>
    <i name="pawpsdc">  22309.00899964 </i>
    <i name="pawaedc"> -22358.90137665 </i>
    <i name="eentropy">     -0.00000000 </i>
    <i name="bandstr">  -3171.67073568 </i>
    <i name="atom">  10407.76518907 </i>
    <i name="e_fr_energy">   -474.81326520 </i>
    <i name="e_wo_entrp">   -474.81326520 </i>
    <i name="e_0_energy">   -474.81326520 </i>
   </energy>
  </scstep>
  <structure>
   <crystal>
    <varray name="basis" >
     <v>      21.97356049      -0.01986185       0.00000000 </v>
     <v>     -11.00400256      18.98395544       0.00000000 </v>
     <v>       0.00000000       0.00000000      20.00000000 </v>
    </varray>
    <i name="volume">   8338.53066700 </i>
    <varray name="rec_basis" >
     <v>       0.04553309       0.02639315       0.00000000 </v>
     <v>       0.00004764       0.05270367       0.00000000 </v>
     <v>       0.00000000       0.00000000       0.05000000 </v>
    </varray>
   </crystal>
   <varray name="positions" >
    <v>       0.43327759       0.94935877       0.48906493 </v>
    <v>       0.56159055       0.13621910       0.46542254 </v>
    <v>       0.05151729       0.47570549       0.48752577 </v>
    <v>       0.86555363       0.41882015       0.46357527 </v>
    <v>       0.52521203       0.56883731       0.48873391 </v>
    <v>       0.58352774       0.44088612       0.46424362 </v>
    <v>       0.57500724       0.04670710       0.51664254 </v>
    <v>       0.44620202       0.86007762       0.54144709 </v>
    <v>       0.95548861       0.52123636       0.51584080 </v>
    <v>       0.14129480       0.57750097       0.54066799 </v>
    <v>       0.48192801       0.42776964       0.51800165 </v>
    <v>       0.42335412       0.55556501       0.54187788 </v>
    <v>       0.33146125       0.82907041       0.56498977 </v>
    <v>       0.17268635       0.49337138       0.56022143 </v>
    <v>       0.50724757       0.67091944       0.56404153 </v>
    <v>       0.67621066       0.16770627       0.44062427 </v>
    <v>       0.83457897       0.50275622       0.44100075 </v>
    <v>       0.49960032       0.32517273       0.44358616 </v>
    <v>       0.26471315       0.61404415       0.55970980 </v>
    <v>       0.31517131       0.59283057       0.56028681 </v>
    <v>       0.38699369       0.64248210       0.56086846 </v>
    <v>       0.40839651       0.71435805       0.56171879 </v>
    <v>       0.28712324       0.68595614       0.56047428 </v>
    <v>       0.18911129       0.55551457       0.55436591 </v>
    <v>       0.44526862       0.62530333       0.55663144 </v>
    <v>       0.74221528       0.38232509       0.44476131 </v>
    <v>       0.69172835       0.40350038       0.44495954 </v>
    <v>       0.61991028       0.35379217       0.44548522 </v>
    <v>       0.59858900       0.28190417       0.44509951 </v>
    <v>       0.71989877       0.31045980       0.44427239 </v>
    <v>       0.81790971       0.44074056       0.44876867 </v>
    <v>       0.56163186       0.37096873       0.45020023 </v>
    <v>       0.46296259       0.01639499       0.47003097 </v>
    <v>       0.53393042       0.06546985       0.48376130 </v>
    <v>       0.98458082       0.43895708       0.46833305 </v>
    <v>       0.93618062       0.46143178       0.48234605 </v>
    <v>       0.56249745       0.53940228       0.46936336 </v>
    <v>       0.54094817       0.46859188       0.48363556 </v>
    <v>       0.35896968       0.73660190       0.56098558 </v>
    <v>       0.37659985       0.81238368       0.55688047 </v>
    <v>       0.64809974       0.25974497       0.44497331 </v>
    <v>       0.63090765       0.18409283       0.44922725 </v>
    <v>       0.47421319       0.93067223       0.52231649 </v>
    <v>       0.54533602       0.97964215       0.53562005 </v>
    <v>       0.07080852       0.53533803       0.52127755 </v>
    <v>       0.02245856       0.55801907       0.53499196 </v>
    <v>       0.46609738       0.52793322       0.52292316 </v>
    <v>       0.44466706       0.45721705       0.53739585 </v>
    <v>       0.46521818       0.75041049       0.56238569 </v>
    <v>       0.25126584       0.70681827       0.55998585 </v>
    <v>       0.29424917       0.53595815       0.55953665 </v>
    <v>       0.54177766       0.24576895       0.44544843 </v>
    <v>       0.75585074       0.28971214       0.44387029 </v>
    <v>       0.71258261       0.46036316       0.44532222 </v>
    <v>       0.42976658       0.03175098       0.44232042 </v>
    <v>       0.52647791       0.15330947       0.46326040 </v>
    <v>       0.96871421       0.39035468       0.44029218 </v>
    <v>       0.84796923       0.36638834       0.46139004 </v>
    <v>       0.61067530       0.57266757       0.44097956 </v>
    <v>       0.63571558       0.47619534       0.46053748 </v>
    <v>       0.57870870       0.96421369       0.56290663 </v>
    <v>       0.48095300       0.84252529       0.54332279 </v>
    <v>       0.03835138       0.60678177       0.56275465 </v>
    <v>       0.15856829       0.62975832       0.54479981 </v>
    <v>       0.39660878       0.42401751       0.56597047 </v>
    <v>       0.37110437       0.52033200       0.54497923 </v>
   </varray>
  </structure>
  <varray name="forces" >
   <v>       0.00129246       0.00331411       0.00530357 </v>
   <v>      -0.00233900      -0.00227702       0.00872686 </v>
   <v>       0.00461297       0.00646357       0.00209845 </v>
   <v>       0.00197598       0.00084399       0.00060359 </v>
   <v>       0.00060046       0.00075989      -0.00194835 </v>
   <v>       0.00086556       0.00194516      -0.00130137 </v>
   <v>      -0.00445382       0.00218781       0.00028318 </v>
   <v>      -0.00366484       0.00361931      -0.00071858 </v>
   <v>      -0.00177613      -0.00359421      -0.00231305 </v>
   <v>      -0.00475255       0.00005867      -0.00083896 </v>
   <v>       0.00119115       0.00149566      -0.00079852 </v>
   <v>       0.00521711      -0.00203387      -0.00416982 </v>
   <v>      -0.00598201       0.00043960      -0.00181926 </v>
   <v>      -0.00072260      -0.00321644      -0.00072757 </v>
   <v>       0.00119720       0.00192358       0.00180911 </v>
   <v>       0.00315459      -0.00096847       0.00268830 </v>
   <v>      -0.00044597       0.00325605      -0.00087362 </v>
   <v>       0.00305512       0.00260937       0.00134076 </v>
   <v>       0.00066773       0.00021288      -0.00317074 </v>
   <v>      -0.00262495       0.00092111      -0.00195069 </v>
   <v>       0.00168226       0.00012309      -0.00294143 </v>
   <v>      -0.00227404       0.00013518      -0.00204756 </v>
   <v>      -0.00012944      -0.00032970      -0.00187120 </v>
   <v>       0.00039383       0.00481580      -0.00138080 </v>
   <v>      -0.00314795      -0.00478185      -0.00351452 </v>
   <v>      -0.00174624       0.00288103      -0.00115690 </v>
   <v>       0.00060421      -0.00214071       0.00031027 </v>
   <v>       0.00049290       0.00199879       0.00155524 </v>
   <v>       0.00098656      -0.00028231       0.00172808 </v>
   <v>       0.00040980      -0.00280425      -0.00003211 </v>
   <v>       0.00104687      -0.00459605      -0.00007479 </v>
   <v>      -0.00273010      -0.00214859      -0.00027007 </v>
   <v>      -0.00235729       0.00176131       0.00087201 </v>
   <v>       0.00134074       0.00170812       0.00355730 </v>
   <v>      -0.00337320      -0.00553622      -0.00329068 </v>
   <v>       0.00042520       0.00245862       0.00092164 </v>
   <v>       0.00093559      -0.00166678       0.00162876 </v>
   <v>       0.00047182       0.00059681       0.00058982 </v>
   <v>       0.00238713      -0.00107071      -0.00057869 </v>
   <v>       0.00846946      -0.00314008      -0.00250812 </v>
   <v>       0.00005251       0.00029604       0.00269268 </v>
   <v>      -0.00658817       0.00386609       0.00287870 </v>
   <v>      -0.00157510      -0.00437888      -0.00293819 </v>
   <v>       0.00243327      -0.00253997       0.00006297 </v>
   <v>      -0.00145069      -0.00003126       0.00182842 </v>
   <v>       0.00658754       0.00000497       0.00047380 </v>
   <v>       0.00168724      -0.00270774      -0.00238209 </v>
   <v>      -0.00189892       0.00097609       0.00131279 </v>
   <v>      -0.00060269       0.00097237      -0.00299390 </v>
   <v>      -0.00017740      -0.00169514      -0.00174200 </v>
   <v>      -0.00202152      -0.00010653      -0.00178762 </v>
   <v>       0.00193849      -0.00049339       0.00125663 </v>
   <v>      -0.00155596       0.00043584       0.00251679 </v>
   <v>       0.00209160       0.00099951      -0.00099836 </v>
   <v>       0.00100671      -0.00205048       0.00450871 </v>
   <v>       0.00029111       0.00113958       0.00734462 </v>
   <v>       0.00120692       0.00338702       0.00245006 </v>
   <v>      -0.00239815       0.00100353      -0.00171934 </v>
   <v>       0.00158005       0.00073964       0.00052621 </v>
   <v>      -0.00086613      -0.00054677       0.00340185 </v>
   <v>      -0.00087096      -0.00392489      -0.00108673 </v>
   <v>       0.00096233       0.00017946      -0.00035733 </v>
   <v>       0.00010741       0.00035604      -0.00037336 </v>
   <v>       0.00038910      -0.00097953      -0.00188520 </v>
   <v>      -0.00084230       0.00245912      -0.00349338 </v>
   <v>      -0.00044284      -0.00330298      -0.00321629 </v>
  </varray>
  <varray name="stress" >
   <v>       0.05368825      -0.00011717       0.00309933 </v>
   <v>      -0.00011717       0.04896329      -0.00534304 </v>
   <v>       0.00309933      -0.00534304      -0.24717779 </v>
  </varray>
  <energy>
   <i name="e_fr_energy">   -476.07340126 </i>
   <i name="e_wo_entrp">   -476.07340126 </i>
   <i name="e_0_energy">     -0.00000000 </i>
  </energy>
  <time name="totalsc"> 1541.29 1558.03</time>
  <eigenvalues>
   <array>
    <dimension dim="1">band</dimension>
    <dimension dim="2">kpoint</dimension>
    <dimension dim="3">spin</dimension>
    <field>eigene</field>
    <field>occ</field>
    <set>
     <set comment="spin 1">
      <set comment="kpoint 1">
       <r>  -26.2206    1.0000 </r>
       <r>  -26.2060    1.0000 </r>
       <r>  -26.2051    1.0000 </r>
       <r>  -26.1828    1.0000 </r>
       <r>  -26.1675    1.0000 </r>
       <r>  -26.1662    1.0000 </r>
       <r>  -25.0043    1.0000 </r>
       <r>  -25.0028    1.0000 </r>
       <r>  -25.0023    1.0000 </r>
       <r>  -23.9897    1.0000 </r>
       <r>  -23.9870    1.0000 </r>
       <r>  -23.9823    1.0000 </r>
       <r>  -23.1868    1.0000 </r>
       <r>  -23.1759    1.0000 </r>
       <r>  -23.1727    1.0000 </r>
       <r>  -22.5452    1.0000 </r>
       <r>  -22.5158    1.0000 </r>
       <r>  -22.5113    1.0000 </r>
       <r>  -21.9902    1.0000 </r>
       <r>  -21.9851    1.0000 </r>
       <r>  -19.8514    1.0000 </r>
       <r>  -19.8507    1.0000 </r>
       <r>  -19.5589    1.0000 </r>
       <r>  -19.5586    1.0000 </r>
       <r>  -19.2400    1.0000 </r>
       <r>  -18.8345    1.0000 </r>
       <r>  -18.8334    1.0000 </r>
       <r>  -17.4647    1.0000 </r>
       <r>  -17.3663    1.0000 </r>
       <r>  -17.3594    1.0000 </r>
       <r>  -16.7780    1.0000 </r>
       <r>  -16.7755    1.0000 </r>
       <r>  -16.7751    1.0000 </r>
       <r>  -16.3068    1.0000 </r>
       <r>  -16.3048    1.0000 </r>
       <r>  -15.8320    1.0000 </r>
       <r>  -15.6554    1.0000 </r>
       <r>  -15.6534    1.0000 </r>
       <r>  -14.9976    1.0000 </r>
       <r>  -14.9952    1.0000 </r>
       <r>  -14.8054    1.0000 </r>
       <r>  -14.7083    1.0000 </r>
       <r>  -14.1762    1.0000 </r>
       <r>  -14.1722    1.0000 </r>
       <r>  -14.1647    1.0000 </r>
       <r>  -13.8194    1.0000 </r>
       <r>  -13.8167    1.0000 </r>
       <r>  -13.6669    1.0000 </r>
       <r>  -13.6648    1.0000 </r>
       <r>  -13.3270    1.0000 </r>
       <r>  -13.2609    1.0000 </r>
       <r>  -12.8879    1.0000 </r>
       <r>  -12.6644    1.0000 </r>
       <r>  -12.6543    1.0000 </r>
       <r>  -12.2492    1.0000 </r>
       <r>  -12.1336    1.0000 </r>
       <r>  -11.6642    1.0000 </r>
       <r>  -11.6624    1.0000 </r>
       <r>  -11.6328    1.0000 </r>
       <r>  -11.6294    1.0000 </r>
       <r>  -11.6211    1.0000 </r>
       <r>  -11.5345    1.0000 </r>
       <r>  -11.1416    1.0000 </r>
       <r>  -11.0885    1.0000 </r>
       <r>  -11.0856    1.0000 </r>
       <r>  -11.0137    1.0000 </r>
       <r>  -11.0062    1.0000 </r>
       <r>  -10.9887    1.0000 </r>
       <r>  -10.9774    1.0000 </r>
       <r>  -10.6900    1.0000 </r>
       <r>  -10.6867    1.0000 </r>
       <r>  -10.5653    1.0000 </r>
       <r>  -10.5295    1.0000 </r>
       <r>  -10.5216    1.0000 </r>
       <r>  -10.4186    1.0000 </r>
       <r>  -10.2606    1.0000 </r>
       <r>  -10.2572    1.0000 </r>
       <r>  -10.1067    1.0000 </r>
       <r>  -10.1059    1.0000 </r>
       <r>  -10.0252    1.0000 </r>
       <r>  -10.0087    1.0000 </r>
       <r>  -10.0081    1.0000 </r>
       <r>   -9.9901    1.0000 </r>
       <r>   -9.3985    1.0000 </r>
       <r>   -9.1207    1.0000 </r>
       <r>   -9.1201    1.0000 </r>
       <r>   -9.0741    1.0000 </r>
       <r>   -9.0718    1.0000 </r>
       <r>   -8.9669    1.0000 </r>
       <r>   -8.6332    1.0000 </r>
       <r>   -8.6258    1.0000 </r>
       <r>   -8.4122    1.0000 </r>
       <r>   -7.8838    1.0000 </r>
       <r>   -7.8778    1.0000 </r>
       <r>   -7.8253    1.0000 </r>
       <r>   -7.2285    1.0000 </r>
       <r>   -7.2256    1.0000 </r>
       <r>   -7.2016    1.0000 </r>
       <r>   -7.1236    1.0000 </r>
       <r>   -7.1138    1.0000 </r>
       <r>   -7.0548    1.0000 </r>
       <r>   -6.8961    1.0000 </r>
       <r>   -6.8920    1.0000 </r>
       <r>   -6.8181    1.0000 </r>
       <r>   -6.8126    1.0000 </r>
       <r>   -6.5084    1.0000 </r>
       <r>   -6.4319    1.0000 </r>
       <r>   -6.4310    1.0000 </r>
       <r>   -6.1513    1.0000 </r>
       <r>   -5.9561    1.0000 </r>
       <r>   -5.9544    1.0000 </r>
       <r>   -5.7594    1.0000 </r>
       <r>   -5.6610    1.0000 </r>
       <r>   -5.6545    1.0000 </r>
       <r>   -5.5035    1.0000 </r>
       <r>   -5.4338    1.0000 </r>
       <r>   -5.4297    1.0000 </r>
       <r>   -2.8750    0.0000 </r>
       <r>   -2.8694    0.0000 </r>
       <r>   -2.5957    0.0000 </r>
       <r>   -2.5894    0.0000 </r>
       <r>   -2.4681    0.0000 </r>
       <r>   -2.3052    0.0000 </r>
       <r>   -2.3025    0.0000 </r>
       <r>   -2.0590    0.0000 </r>
       <r>   -1.4033    0.0000 </r>
       <r>   -1.3970    0.0000 </r>
       <r>   -1.3740    0.0000 </r>
       <r>   -0.6745    0.0000 </r>
       <r>   -0.6117    0.0000 </r>
       <r>   -0.4672    0.0000 </r>
       <r>   -0.2810    0.0000 </r>
       <r>   -0.2785    0.0000 </r>
       <r>   -0.2057    0.0000 </r>
       <r>   -0.2037    0.0000 </r>
       <r>    0.3150    0.0000 </r>
       <r>    0.3806    0.0000 </r>
       <r>    0.3916    0.0000 </r>
       <r>    0.4257    0.0000 </r>
       <r>    0.4929    0.0000 </r>
       <r>    0.5121    0.0000 </r>
       <r>    0.5544    0.0000 </r>
       <r>    0.6547    0.0000 </r>
       <r>    0.6552    0.0000 </r>
       <r>    0.6663    0.0000 </r>
       <r>    0.6718    0.0000 </r>
       <r>    0.8018    0.0000 </r>
       <r>    0.8079    0.0000 </r>
       <r>    0.8272    0.0000 </r>
       <r>    0.8367    0.0000 </r>
       <r>    0.8398    0.0000 </r>
       <r>    0.8613    0.0000 </r>
       <r>    0.8684    0.0000 </r>
       <r>    0.9446    0.0000 </r>
       <r>    1.0214    0.0000 </r>
       <r>    1.0465    0.0000 </r>
       <r>    1.0483    0.0000 </r>
       <r>    1.0891    0.0000 </r>
       <r>    1.0902    0.0000 </r>
       <r>    1.0929    0.0000 </r>
      </set>
      <set comment="kpoint 2">
       <r>  -26.2206    1.0000 </r>
       <r>  -26.2061    1.0000 </r>
       <r>  -26.2051    1.0000 </r>
       <r>  -26.1827    1.0000 </r>
       <r>  -26.1675    1.0000 </r>
       <r>  -26.1662    1.0000 </r>
       <r>  -25.0043    1.0000 </r>
       <r>  -25.0028    1.0000 </r>
       <r>  -25.0023    1.0000 </r>
       <r>  -23.9897    1.0000 </r>
       <r>  -23.9870    1.0000 </r>
       <r>  -23.9823    1.0000 </r>
       <r>  -23.1868    1.0000 </r>
       <r>  -23.1759    1.0000 </r>
       <r>  -23.1727    1.0000 </r>
       <r>  -22.5452    1.0000 </r>
       <r>  -22.5158    1.0000 </r>
       <r>  -22.5113    1.0000 </r>
       <r>  -21.9902    1.0000 </r>
       <r>  -21.9851    1.0000 </r>
       <r>  -19.8512    1.0000 </r>
       <r>  -19.8506    1.0000 </r>
       <r>  -19.5595    1.0000 </r>
       <r>  -19.5589    1.0000 </r>
       <r>  -19.2390    1.0000 </r>
       <r>  -18.8347    1.0000 </r>
       <r>  -18.8336    1.0000 </r>
       <r>  -17.4645    1.0000 </r>
       <r>  -17.3664    1.0000 </r>
       <r>  -17.3594    1.0000 </r>
       <r>  -16.7780    1.0000 </r>
       <r>  -16.7756    1.0000 </r>
       <r>  -16.7751    1.0000 </r>
       <r>  -16.3068    1.0000 </r>
       <r>  -16.3045    1.0000 </r>
       <r>  -15.8348    1.0000 </r>
       <r>  -15.6553    1.0000 </r>
       <r>  -15.6506    1.0000 </r>
       <r>  -14.9989    1.0000 </r>
       <r>  -14.9952    1.0000 </r>
       <r>  -14.8046    1.0000 </r>
       <r>  -14.7082    1.0000 </r>
       <r>  -14.1763    1.0000 </r>
       <r>  -14.1724    1.0000 </r>
       <r>  -14.1649    1.0000 </r>
       <r>  -13.8190    1.0000 </r>
       <r>  -13.8165    1.0000 </r>
       <r>  -13.6670    1.0000 </r>
       <r>  -13.6649    1.0000 </r>
       <r>  -13.3269    1.0000 </r>
       <r>  -13.2610    1.0000 </r>
       <r>  -12.8876    1.0000 </r>
       <r>  -12.6644    1.0000 </r>
       <r>  -12.6547    1.0000 </r>
       <r>  -12.2489    1.0000 </r>
       <r>  -12.1337    1.0000 </r>
       <r>  -11.6643    1.0000 </r>
       <r>  -11.6625    1.0000 </r>
       <r>  -11.6332    1.0000 </r>
       <r>  -11.6295    1.0000 </r>
       <r>  -11.6204    1.0000 </r>
       <r>  -11.5346    1.0000 </r>
       <r>  -11.1416    1.0000 </r>
       <r>  -11.0886    1.0000 </r>
       <r>  -11.0856    1.0000 </r>
       <r>  -11.0146    1.0000 </r>
       <r>  -11.0062    1.0000 </r>
       <r>  -10.9875    1.0000 </r>
       <r>  -10.9775    1.0000 </r>
       <r>  -10.6905    1.0000 </r>
       <r>  -10.6867    1.0000 </r>
       <r>  -10.5667    1.0000 </r>
       <r>  -10.5274    1.0000 </r>
       <r>  -10.5213    1.0000 </r>
       <r>  -10.4190    1.0000 </r>
       <r>  -10.2606    1.0000 </r>
       <r>  -10.2572    1.0000 </r>
       <r>  -10.1068    1.0000 </r>
       <r>  -10.1059    1.0000 </r>
       <r>  -10.0261    1.0000 </r>
       <r>  -10.0085    1.0000 </r>
       <r>  -10.0077    1.0000 </r>
       <r>   -9.9901    1.0000 </r>
       <r>   -9.3979    1.0000 </r>
       <r>   -9.1207    1.0000 </r>
       <r>   -9.1202    1.0000 </r>
       <r>   -9.0741    1.0000 </r>
       <r>   -9.0718    1.0000 </r>
       <r>   -8.9675    1.0000 </r>
       <r>   -8.6326    1.0000 </r>
       <r>   -8.6257    1.0000 </r>
       <r>   -8.4124    1.0000 </r>
       <r>   -7.8837    1.0000 </r>
       <r>   -7.8778    1.0000 </r>
       <r>   -7.8254    1.0000 </r>
       <r>   -7.2284    1.0000 </r>
       <r>   -7.2256    1.0000 </r>
       <r>   -7.2017    1.0000 </r>
       <r>   -7.1236    1.0000 </r>
       <r>   -7.1139    1.0000 </r>
       <r>   -7.0549    1.0000 </r>
       <r>   -6.8959    1.0000 </r>
       <r>   -6.8919    1.0000 </r>
       <r>   -6.8182    1.0000 </r>
       <r>   -6.8126    1.0000 </r>
       <r>   -6.5083    1.0000 </r>
       <r>   -6.4320    1.0000 </r>
       <r>   -6.4310    1.0000 </r>
       <r>   -6.1511    1.0000 </r>
       <r>   -5.9561    1.0000 </r>
       <r>   -5.9548    1.0000 </r>
       <r>   -5.7591    1.0000 </r>
       <r>   -5.6610    1.0000 </r>
       <r>   -5.6546    1.0000 </r>
       <r>   -5.5034    1.0000 </r>
       <r>   -5.4338    1.0000 </r>
       <r>   -5.4298    1.0000 </r>
       <r>   -2.8749    0.0000 </r>
       <r>   -2.8693    0.0000 </r>
       <r>   -2.5966    0.0000 </r>
       <r>   -2.5900    0.0000 </r>
       <r>   -2.4667    0.0000 </r>
       <r>   -2.3053    0.0000 </r>
       <r>   -2.3026    0.0000 </r>
       <r>   -2.0585    0.0000 </r>
       <r>   -1.4148    0.0000 </r>
       <r>   -1.4014    0.0000 </r>
       <r>   -1.3581    0.0000 </r>
       <r>   -0.6751    0.0000 </r>
       <r>   -0.6116    0.0000 </r>
       <r>   -0.4678    0.0000 </r>
       <r>   -0.2807    0.0000 </r>
       <r>   -0.2785    0.0000 </r>
       <r>   -0.2056    0.0000 </r>
       <r>   -0.2037    0.0000 </r>
       <r>    0.3152    0.0000 </r>
       <r>    0.3807    0.0000 </r>
       <r>    0.3920    0.0000 </r>
       <r>    0.4257    0.0000 </r>
       <r>    0.4924    0.0000 </r>
       <r>    0.5122    0.0000 </r>
       <r>    0.5544    0.0000 </r>
       <r>    0.6549    0.0000 </r>
       <r>    0.6550    0.0000 </r>
       <r>    0.6667    0.0000 </r>
       <r>    0.6717    0.0000 </r>
       <r>    0.8016    0.0000 </r>
       <r>    0.8039    0.0000 </r>
       <r>    0.8304    0.0000 </r>
       <r>    0.8361    0.0000 </r>
       <r>    0.8391    0.0000 </r>
       <r>    0.8622    0.0000 </r>
       <r>    0.8681    0.0000 </r>
       <r>    0.9457    0.0000 </r>
       <r>    1.0196    0.0000 </r>
       <r>    1.0459    0.0000 </r>
       <r>    1.0500    0.0000 </r>
       <r>    1.0878    0.0000 </r>
       <r>    1.0915    0.0000 </r>
       <r>    1.0933    0.0000 </r>
      </set>
      <set comment="kpoint 3">
       <r>  -26.2205    1.0000 </r>
       <r>  -26.2061    1.0000 </r>
       <r>  -26.2052    1.0000 </r>
       <r>  -26.1826    1.0000 </r>
       <r>  -26.1675    1.0000 </r>
       <r>  -26.1662    1.0000 </r>
       <r>  -25.0043    1.0000 </r>
       <r>  -25.0028    1.0000 </r>
       <r>  -25.0023    1.0000 </r>
       <r>  -23.9896    1.0000 </r>
       <r>  -23.9870    1.0000 </r>
       <r>  -23.9823    1.0000 </r>
       <r>  -23.1867    1.0000 </r>
       <r>  -23.1760    1.0000 </r>
       <r>  -23.1727    1.0000 </r>
       <r>  -22.5450    1.0000 </r>
       <r>  -22.5159    1.0000 </r>
       <r>  -22.5113    1.0000 </r>
       <r>  -21.9902    1.0000 </r>
       <r>  -21.9851    1.0000 </r>
       <r>  -19.8510    1.0000 </r>
       <r>  -19.8500    1.0000 </r>
       <r>  -19.5623    1.0000 </r>
       <r>  -19.5589    1.0000 </r>
       <r>  -19.2358    1.0000 </r>
       <r>  -18.8360    1.0000 </r>
       <r>  -18.8339    1.0000 </r>
       <r>  -17.4639    1.0000 </r>
       <r>  -17.3668    1.0000 </r>
       <r>  -17.3594    1.0000 </r>
       <r>  -16.7780    1.0000 </r>
       <r>  -16.7756    1.0000 </r>
       <r>  -16.7752    1.0000 </r>
       <r>  -16.3066    1.0000 </r>
       <r>  -16.3034    1.0000 </r>
       <r>  -15.8427    1.0000 </r>
       <r>  -15.6553    1.0000 </r>
       <r>  -15.6424    1.0000 </r>
       <r>  -15.0026    1.0000 </r>
       <r>  -14.9950    1.0000 </r>
       <r>  -14.8021    1.0000 </r>
       <r>  -14.7080    1.0000 </r>
       <r>  -14.1764    1.0000 </r>
       <r>  -14.1730    1.0000 </r>
       <r>  -14.1657    1.0000 </r>
       <r>  -13.8180    1.0000 </r>
       <r>  -13.8160    1.0000 </r>
       <r>  -13.6672    1.0000 </r>
       <r>  -13.6653    1.0000 </r>
       <r>  -13.3267    1.0000 </r>
       <r>  -13.2613    1.0000 </r>
       <r>  -12.8867    1.0000 </r>
       <r>  -12.6644    1.0000 </r>
       <r>  -12.6560    1.0000 </r>
       <r>  -12.2481    1.0000 </r>
       <r>  -12.1341    1.0000 </r>
       <r>  -11.6643    1.0000 </r>
       <r>  -11.6627    1.0000 </r>
       <r>  -11.6344    1.0000 </r>
       <r>  -11.6296    1.0000 </r>
       <r>  -11.6186    1.0000 </r>
       <r>  -11.5349    1.0000 </r>
       <r>  -11.1414    1.0000 </r>
       <r>  -11.0887    1.0000 </r>
       <r>  -11.0856    1.0000 </r>
       <r>  -11.0168    1.0000 </r>
       <r>  -11.0063    1.0000 </r>
       <r>  -10.9844    1.0000 </r>
       <r>  -10.9777    1.0000 </r>
       <r>  -10.6920    1.0000 </r>
       <r>  -10.6869    1.0000 </r>
       <r>  -10.5701    1.0000 </r>
       <r>  -10.5238    1.0000 </r>
       <r>  -10.5187    1.0000 </r>
       <r>  -10.4200    1.0000 </r>
       <r>  -10.2606    1.0000 </r>
       <r>  -10.2570    1.0000 </r>
       <r>  -10.1069    1.0000 </r>
       <r>  -10.1059    1.0000 </r>
       <r>  -10.0286    1.0000 </r>
       <r>  -10.0084    1.0000 </r>
       <r>  -10.0066    1.0000 </r>
       <r>   -9.9901    1.0000 </r>
       <r>   -9.3962    1.0000 </r>
       <r>   -9.1208    1.0000 </r>
       <r>   -9.1206    1.0000 </r>
       <r>   -9.0740    1.0000 </r>
       <r>   -9.0718    1.0000 </r>
       <r>   -8.9695    1.0000 </r>
       <r>   -8.6311    1.0000 </r>
       <r>   -8.6254    1.0000 </r>
       <r>   -8.4130    1.0000 </r>
       <r>   -7.8836    1.0000 </r>
       <r>   -7.8778    1.0000 </r>
       <r>   -7.8257    1.0000 </r>
       <r>   -7.2281    1.0000 </r>
       <r>   -7.2255    1.0000 </r>
       <r>   -7.2017    1.0000 </r>
       <r>   -7.1236    1.0000 </r>
       <r>   -7.1140    1.0000 </r>
       <r>   -7.0554    1.0000 </r>
       <r>   -6.8953    1.0000 </r>
       <r>   -6.8917    1.0000 </r>
       <r>   -6.8185    1.0000 </r>
       <r>   -6.8127    1.0000 </r>
       <r>   -6.5080    1.0000 </r>
       <r>   -6.4325    1.0000 </r>
       <r>   -6.4310    1.0000 </r>
       <r>   -6.1502    1.0000 </r>
       <r>   -5.9566    1.0000 </r>
       <r>   -5.9556    1.0000 </r>
       <r>   -5.7583    1.0000 </r>
       <r>   -5.6609    1.0000 </r>
       <r>   -5.6548    1.0000 </r>
       <r>   -5.5031    1.0000 </r>
       <r>   -5.4339    1.0000 </r>
       <r>   -5.4300    1.0000 </r>
       <r>   -2.8745    0.0000 </r>
       <r>   -2.8690    0.0000 </r>
       <r>   -2.5996    0.0000 </r>
       <r>   -2.5911    0.0000 </r>
       <r>   -2.4629    0.0000 </r>
       <r>   -2.3053    0.0000 </r>
       <r>   -2.3027    0.0000 </r>
       <r>   -2.0570    0.0000 </r>
       <r>   -1.4384    0.0000 </r>
       <r>   -1.4017    0.0000 </r>
       <r>   -1.3341    0.0000 </r>
       <r>   -0.6767    0.0000 </r>
       <r>   -0.6112    0.0000 </r>
       <r>   -0.4696    0.0000 </r>
       <r>   -0.2802    0.0000 </r>
       <r>   -0.2783    0.0000 </r>
       <r>   -0.2053    0.0000 </r>
       <r>   -0.2037    0.0000 </r>
       <r>    0.3158    0.0000 </r>
       <r>    0.3810    0.0000 </r>
       <r>    0.3930    0.0000 </r>
       <r>    0.4260    0.0000 </r>
       <r>    0.4909    0.0000 </r>
       <r>    0.5125    0.0000 </r>
       <r>    0.5544    0.0000 </r>
       <r>    0.6542    0.0000 </r>
       <r>    0.6557    0.0000 </r>
       <r>    0.6676    0.0000 </r>
       <r>    0.6717    0.0000 </r>
       <r>    0.7947    0.0000 </r>
       <r>    0.8019    0.0000 </r>
       <r>    0.8328    0.0000 </r>
       <r>    0.8341    0.0000 </r>
       <r>    0.8407    0.0000 </r>
       <r>    0.8642    0.0000 </r>
       <r>    0.8673    0.0000 </r>
       <r>    0.9489    0.0000 </r>
       <r>    1.0154    0.0000 </r>
       <r>    1.0447    0.0000 </r>
       <r>    1.0536    0.0000 </r>
       <r>    1.0846    0.0000 </r>
       <r>    1.0943    0.0000 </r>
       <r>    1.0962    0.0000 </r>
      </set>
      <set comment="kpoint 4">
       <r>  -26.2204    1.0000 </r>
       <r>  -26.2063    1.0000 </r>
       <r>  -26.2052    1.0000 </r>
       <r>  -26.1825    1.0000 </r>
       <r>  -26.1675    1.0000 </r>
       <r>  -26.1663    1.0000 </r>
       <r>  -25.0043    1.0000 </r>
       <r>  -25.0028    1.0000 </r>
       <r>  -25.0023    1.0000 </r>
       <r>  -23.9896    1.0000 </r>
       <r>  -23.9870    1.0000 </r>
       <r>  -23.9823    1.0000 </r>
       <r>  -23.1866    1.0000 </r>
       <r>  -23.1761    1.0000 </r>
       <r>  -23.1727    1.0000 </r>
       <r>  -22.5448    1.0000 </r>
       <r>  -22.5161    1.0000 </r>
       <r>  -22.5113    1.0000 </r>
       <r>  -21.9901    1.0000 </r>
       <r>  -21.9851    1.0000 </r>
       <r>  -19.8509    1.0000 </r>
       <r>  -19.8486    1.0000 </r>
       <r>  -19.5667    1.0000 </r>
       <r>  -19.5589    1.0000 </r>
       <r>  -19.2306    1.0000 </r>
       <r>  -18.8383    1.0000 </r>
       <r>  -18.8340    1.0000 </r>
       <r>  -17.4629    1.0000 </r>
       <r>  -17.3674    1.0000 </r>
       <r>  -17.3594    1.0000 </r>
       <r>  -16.7780    1.0000 </r>
       <r>  -16.7756    1.0000 </r>
       <r>  -16.7752    1.0000 </r>
       <r>  -16.3064    1.0000 </r>
       <r>  -16.3015    1.0000 </r>
       <r>  -15.8545    1.0000 </r>
       <r>  -15.6554    1.0000 </r>
       <r>  -15.6300    1.0000 </r>
       <r>  -15.0087    1.0000 </r>
       <r>  -14.9949    1.0000 </r>
       <r>  -14.7981    1.0000 </r>
       <r>  -14.7077    1.0000 </r>
       <r>  -14.1768    1.0000 </r>
       <r>  -14.1739    1.0000 </r>
       <r>  -14.1670    1.0000 </r>
       <r>  -13.8169    1.0000 </r>
       <r>  -13.8146    1.0000 </r>
       <r>  -13.6676    1.0000 </r>
       <r>  -13.6658    1.0000 </r>
       <r>  -13.3262    1.0000 </r>
       <r>  -13.2618    1.0000 </r>
       <r>  -12.8851    1.0000 </r>
       <r>  -12.6646    1.0000 </r>
       <r>  -12.6580    1.0000 </r>
       <r>  -12.2467    1.0000 </r>
       <r>  -12.1347    1.0000 </r>
       <r>  -11.6645    1.0000 </r>
       <r>  -11.6630    1.0000 </r>
       <r>  -11.6361    1.0000 </r>
       <r>  -11.6294    1.0000 </r>
       <r>  -11.6162    1.0000 </r>
       <r>  -11.5353    1.0000 </r>
       <r>  -11.1411    1.0000 </r>
       <r>  -11.0890    1.0000 </r>
       <r>  -11.0857    1.0000 </r>
       <r>  -11.0197    1.0000 </r>
       <r>  -11.0064    1.0000 </r>
       <r>  -10.9814    1.0000 </r>
       <r>  -10.9769    1.0000 </r>
       <r>  -10.6947    1.0000 </r>
       <r>  -10.6870    1.0000 </r>
       <r>  -10.5739    1.0000 </r>
       <r>  -10.5228    1.0000 </r>
       <r>  -10.5112    1.0000 </r>
       <r>  -10.4217    1.0000 </r>
       <r>  -10.2606    1.0000 </r>
       <r>  -10.2568    1.0000 </r>
       <r>  -10.1071    1.0000 </r>
       <r>  -10.1058    1.0000 </r>
       <r>  -10.0322    1.0000 </r>
       <r>  -10.0084    1.0000 </r>
       <r>  -10.0050    1.0000 </r>
       <r>   -9.9901    1.0000 </r>
       <r>   -9.3933    1.0000 </r>
       <r>   -9.1214    1.0000 </r>
       <r>   -9.1207    1.0000 </r>
       <r>   -9.0739    1.0000 </r>
       <r>   -9.0717    1.0000 </r>
       <r>   -8.9727    1.0000 </r>
       <r>   -8.6290    1.0000 </r>
       <r>   -8.6245    1.0000 </r>
       <r>   -8.4141    1.0000 </r>
       <r>   -7.8833    1.0000 </r>
       <r>   -7.8778    1.0000 </r>
       <r>   -7.8262    1.0000 </r>
       <r>   -7.2277    1.0000 </r>
       <r>   -7.2253    1.0000 </r>
       <r>   -7.2017    1.0000 </r>
       <r>   -7.1237    1.0000 </r>
       <r>   -7.1141    1.0000 </r>
       <r>   -7.0562    1.0000 </r>
       <r>   -6.8944    1.0000 </r>
       <r>   -6.8914    1.0000 </r>
       <r>   -6.8191    1.0000 </r>
       <r>   -6.8129    1.0000 </r>
       <r>   -6.5075    1.0000 </r>
       <r>   -6.4333    1.0000 </r>
       <r>   -6.4310    1.0000 </r>
       <r>   -6.1489    1.0000 </r>
       <r>   -5.9583    1.0000 </r>
       <r>   -5.9559    1.0000 </r>
       <r>   -5.7568    1.0000 </r>
       <r>   -5.6609    1.0000 </r>
       <r>   -5.6552    1.0000 </r>
       <r>   -5.5026    1.0000 </r>
       <r>   -5.4341    1.0000 </r>
       <r>   -5.4304    1.0000 </r>
       <r>   -2.8739    0.0000 </r>
       <r>   -2.8684    0.0000 </r>
       <r>   -2.6054    0.0000 </r>
       <r>   -2.5918    0.0000 </r>
       <r>   -2.4572    0.0000 </r>
       <r>   -2.3054    0.0000 </r>
       <r>   -2.3028    0.0000 </r>
       <r>   -2.0546    0.0000 </r>
       <r>   -1.4629    0.0000 </r>
       <r>   -1.4017    0.0000 </r>
       <r>   -1.3093    0.0000 </r>
       <r>   -0.6796    0.0000 </r>
       <r>   -0.6107    0.0000 </r>
       <r>   -0.4725    0.0000 </r>
       <r>   -0.2799    0.0000 </r>
       <r>   -0.2773    0.0000 </r>
       <r>   -0.2051    0.0000 </r>
       <r>   -0.2036    0.0000 </r>
       <r>    0.3167    0.0000 </r>
       <r>    0.3815    0.0000 </r>
       <r>    0.3948    0.0000 </r>
       <r>    0.4264    0.0000 </r>
       <r>    0.4885    0.0000 </r>
       <r>    0.5130    0.0000 </r>
       <r>    0.5545    0.0000 </r>
       <r>    0.6533    0.0000 </r>
       <r>    0.6563    0.0000 </r>
       <r>    0.6690    0.0000 </r>
       <r>    0.6720    0.0000 </r>
       <r>    0.7844    0.0000 </r>
       <r>    0.8016    0.0000 </r>
       <r>    0.8295    0.0000 </r>
       <r>    0.8313    0.0000 </r>
       <r>    0.8467    0.0000 </r>
       <r>    0.8660    0.0000 </r>
       <r>    0.8678    0.0000 </r>
       <r>    0.9535    0.0000 </r>
       <r>    1.0103    0.0000 </r>
       <r>    1.0431    0.0000 </r>
       <r>    1.0558    0.0000 </r>
       <r>    1.0830    0.0000 </r>
       <r>    1.0965    0.0000 </r>
       <r>    1.1031    0.0000 </r>
      </set>
      <set comment="kpoint 5">
       <r>  -26.2203    1.0000 </r>
       <r>  -26.2064    1.0000 </r>
       <r>  -26.2053    1.0000 </r>
       <r>  -26.1822    1.0000 </r>
       <r>  -26.1675    1.0000 </r>
       <r>  -26.1664    1.0000 </r>
       <r>  -25.0043    1.0000 </r>
       <r>  -25.0028    1.0000 </r>
       <r>  -25.0023    1.0000 </r>
       <r>  -23.9896    1.0000 </r>
       <r>  -23.9871    1.0000 </r>
       <r>  -23.9824    1.0000 </r>
       <r>  -23.1865    1.0000 </r>
       <r>  -23.1762    1.0000 </r>
       <r>  -23.1727    1.0000 </r>
       <r>  -22.5444    1.0000 </r>
       <r>  -22.5164    1.0000 </r>
       <r>  -22.5114    1.0000 </r>
       <r>  -21.9901    1.0000 </r>
       <r>  -21.9852    1.0000 </r>
       <r>  -19.8509    1.0000 </r>
       <r>  -19.8467    1.0000 </r>
       <r>  -19.5726    1.0000 </r>
       <r>  -19.5589    1.0000 </r>
       <r>  -19.2236    1.0000 </r>
       <r>  -18.8417    1.0000 </r>
       <r>  -18.8340    1.0000 </r>
       <r>  -17.4616    1.0000 </r>
       <r>  -17.3683    1.0000 </r>
       <r>  -17.3594    1.0000 </r>
       <r>  -16.7780    1.0000 </r>
       <r>  -16.7756    1.0000 </r>
       <r>  -16.7752    1.0000 </r>
       <r>  -16.3062    1.0000 </r>
       <r>  -16.2988    1.0000 </r>
       <r>  -15.8690    1.0000 </r>
       <r>  -15.6556    1.0000 </r>
       <r>  -15.6147    1.0000 </r>
       <r>  -15.0168    1.0000 </r>
       <r>  -14.9946    1.0000 </r>
       <r>  -14.7930    1.0000 </r>
       <r>  -14.7072    1.0000 </r>
       <r>  -14.1777    1.0000 </r>
       <r>  -14.1749    1.0000 </r>
       <r>  -14.1687    1.0000 </r>
       <r>  -13.8161    1.0000 </r>
       <r>  -13.8120    1.0000 </r>
       <r>  -13.6683    1.0000 </r>
       <r>  -13.6664    1.0000 </r>
       <r>  -13.3256    1.0000 </r>
       <r>  -13.2625    1.0000 </r>
       <r>  -12.8830    1.0000 </r>
       <r>  -12.6650    1.0000 </r>
       <r>  -12.6605    1.0000 </r>
       <r>  -12.2448    1.0000 </r>
       <r>  -12.1356    1.0000 </r>
       <r>  -11.6648    1.0000 </r>
       <r>  -11.6634    1.0000 </r>
       <r>  -11.6379    1.0000 </r>
       <r>  -11.6290    1.0000 </r>
       <r>  -11.6135    1.0000 </r>
       <r>  -11.5358    1.0000 </r>
       <r>  -11.1407    1.0000 </r>
       <r>  -11.0896    1.0000 </r>
       <r>  -11.0857    1.0000 </r>
       <r>  -11.0228    1.0000 </r>
       <r>  -11.0065    1.0000 </r>
       <r>  -10.9811    1.0000 </r>
       <r>  -10.9728    1.0000 </r>
       <r>  -10.6986    1.0000 </r>
       <r>  -10.6871    1.0000 </r>
       <r>  -10.5771    1.0000 </r>
       <r>  -10.5226    1.0000 </r>
       <r>  -10.5017    1.0000 </r>
       <r>  -10.4241    1.0000 </r>
       <r>  -10.2606    1.0000 </r>
       <r>  -10.2565    1.0000 </r>
       <r>  -10.1073    1.0000 </r>
       <r>  -10.1058    1.0000 </r>
       <r>  -10.0365    1.0000 </r>
       <r>  -10.0084    1.0000 </r>
       <r>  -10.0034    1.0000 </r>
       <r>   -9.9901    1.0000 </r>
       <r>   -9.3893    1.0000 </r>
       <r>   -9.1225    1.0000 </r>
       <r>   -9.1208    1.0000 </r>
       <r>   -9.0738    1.0000 </r>
       <r>   -9.0717    1.0000 </r>
       <r>   -8.9770    1.0000 </r>
       <r>   -8.6277    1.0000 </r>
       <r>   -8.6218    1.0000 </r>
       <r>   -8.4156    1.0000 </r>
       <r>   -7.8828    1.0000 </r>
       <r>   -7.8778    1.0000 </r>
       <r>   -7.8269    1.0000 </r>
       <r>   -7.2271    1.0000 </r>
       <r>   -7.2251    1.0000 </r>
       <r>   -7.2017    1.0000 </r>
       <r>   -7.1237    1.0000 </r>
       <r>   -7.1144    1.0000 </r>
       <r>   -7.0572    1.0000 </r>
       <r>   -6.8932    1.0000 </r>
       <r>   -6.8910    1.0000 </r>
       <r>   -6.8198    1.0000 </r>
       <r>   -6.8132    1.0000 </r>
       <r>   -6.5069    1.0000 </r>
       <r>   -6.4343    1.0000 </r>
       <r>   -6.4310    1.0000 </r>
       <r>   -6.1470    1.0000 </r>
       <r>   -5.9611    1.0000 </r>
       <r>   -5.9560    1.0000 </r>
       <r>   -5.7549    1.0000 </r>
       <r>   -5.6609    1.0000 </r>
       <r>   -5.6558    1.0000 </r>
       <r>   -5.5018    1.0000 </r>
       <r>   -5.4343    1.0000 </r>
       <r>   -5.4309    1.0000 </r>
       <r>   -2.8733    0.0000 </r>
       <r>   -2.8674    0.0000 </r>
       <r>   -2.6131    0.0000 </r>
       <r>   -2.5922    0.0000 </r>
       <r>   -2.4500    0.0000 </r>
       <r>   -2.3056    0.0000 </r>
       <r>   -2.3030    0.0000 </r>
       <r>   -2.0511    0.0000 </r>
       <r>   -1.4876    0.0000 </r>
       <r>   -1.4018    0.0000 </r>
       <r>   -1.2843    0.0000 </r>
       <r>   -0.6835    0.0000 </r>
       <r>   -0.6099    0.0000 </r>
       <r>   -0.4763    0.0000 </r>
       <r>   -0.2801    0.0000 </r>
       <r>   -0.2755    0.0000 </r>
       <r>   -0.2049    0.0000 </r>
       <r>   -0.2032    0.0000 </r>
       <r>    0.3181    0.0000 </r>
       <r>    0.3820    0.0000 </r>
       <r>    0.3972    0.0000 </r>
       <r>    0.4269    0.0000 </r>
       <r>    0.4853    0.0000 </r>
       <r>    0.5138    0.0000 </r>
       <r>    0.5546    0.0000 </r>
       <r>    0.6523    0.0000 </r>
       <r>    0.6563    0.0000 </r>
       <r>    0.6709    0.0000 </r>
       <r>    0.6730    0.0000 </r>
       <r>    0.7735    0.0000 </r>
       <r>    0.8008    0.0000 </r>
       <r>    0.8250    0.0000 </r>
       <r>    0.8274    0.0000 </r>
       <r>    0.8527    0.0000 </r>
       <r>    0.8669    0.0000 </r>
       <r>    0.8705    0.0000 </r>
       <r>    0.9588    0.0000 </r>
       <r>    1.0052    0.0000 </r>
       <r>    1.0414    0.0000 </r>
       <r>    1.0546    0.0000 </r>
       <r>    1.0856    0.0000 </r>
       <r>    1.0992    0.0000 </r>
       <r>    1.1120    0.0000 </r>
      </set>
      <set comment="kpoint 6">
       <r>  -26.2202    1.0000 </r>
       <r>  -26.2067    1.0000 </r>
       <r>  -26.2054    1.0000 </r>
       <r>  -26.1819    1.0000 </r>
       <r>  -26.1675    1.0000 </r>
       <r>  -26.1665    1.0000 </r>
       <r>  -25.0043    1.0000 </r>
       <r>  -25.0028    1.0000 </r>
       <r>  -25.0023    1.0000 </r>
       <r>  -23.9895    1.0000 </r>
       <r>  -23.9871    1.0000 </r>
       <r>  -23.9824    1.0000 </r>
       <r>  -23.1864    1.0000 </r>
       <r>  -23.1764    1.0000 </r>
       <r>  -23.1727    1.0000 </r>
       <r>  -22.5440    1.0000 </r>
       <r>  -22.5168    1.0000 </r>
       <r>  -22.5114    1.0000 </r>
       <r>  -21.9901    1.0000 </r>
       <r>  -21.9852    1.0000 </r>
       <r>  -19.8509    1.0000 </r>
       <r>  -19.8442    1.0000 </r>
       <r>  -19.5799    1.0000 </r>
       <r>  -19.5589    1.0000 </r>
       <r>  -19.2151    1.0000 </r>
       <r>  -18.8459    1.0000 </r>
       <r>  -18.8340    1.0000 </r>
       <r>  -17.4598    1.0000 </r>
       <r>  -17.3694    1.0000 </r>
       <r>  -17.3594    1.0000 </r>
       <r>  -16.7780    1.0000 </r>
       <r>  -16.7757    1.0000 </r>
       <r>  -16.7753    1.0000 </r>
       <r>  -16.3061    1.0000 </r>
       <r>  -16.2952    1.0000 </r>
       <r>  -15.8853    1.0000 </r>
       <r>  -15.6558    1.0000 </r>
       <r>  -15.5974    1.0000 </r>
       <r>  -15.0266    1.0000 </r>
       <r>  -14.9942    1.0000 </r>
       <r>  -14.7870    1.0000 </r>
       <r>  -14.7067    1.0000 </r>
       <r>  -14.1793    1.0000 </r>
       <r>  -14.1757    1.0000 </r>
       <r>  -14.1705    1.0000 </r>
       <r>  -13.8154    1.0000 </r>
       <r>  -13.8086    1.0000 </r>
       <r>  -13.6694    1.0000 </r>
       <r>  -13.6669    1.0000 </r>
       <r>  -13.3248    1.0000 </r>
       <r>  -13.2635    1.0000 </r>
       <r>  -12.8803    1.0000 </r>
       <r>  -12.6664    1.0000 </r>
       <r>  -12.6628    1.0000 </r>
       <r>  -12.2425    1.0000 </r>
       <r>  -12.1367    1.0000 </r>
       <r>  -11.6651    1.0000 </r>
       <r>  -11.6638    1.0000 </r>
       <r>  -11.6397    1.0000 </r>
       <r>  -11.6285    1.0000 </r>
       <r>  -11.6106    1.0000 </r>
       <r>  -11.5365    1.0000 </r>
       <r>  -11.1402    1.0000 </r>
       <r>  -11.0903    1.0000 </r>
       <r>  -11.0857    1.0000 </r>
       <r>  -11.0256    1.0000 </r>
       <r>  -11.0066    1.0000 </r>
       <r>  -10.9822    1.0000 </r>
[...]
   <v name="MAGDIPOLOUT">      0.00000000      0.00000000      0.00000000</v>
  </separator>
  <dos>
   <i name="efermi">     -5.35833516 </i>
   <total>
    <array>
     <dimension dim="1">gridpoints</dimension>
     <dimension dim="2">spin</dimension>
     <field>energy</field>
     <field>total</field>
     <field>integrated</field>
     <set>
      <set comment="spin 1">
       <r>   -27.5908     0.0000     0.0000 </r>
       <r>   -27.4903     0.0000     0.0000 </r>
       <r>   -27.3899     0.0000     0.0000 </r>
       <r>   -27.2894     0.0000     0.0000 </r>
       <r>   -27.1889     0.0000     0.0000 </r>
       <r>   -27.0884     0.0000     0.0000 </r>
       <r>   -26.9879     0.0000     0.0000 </r>
       <r>   -26.8874     0.0000     0.0000 </r>
       <r>   -26.7869     0.0000     0.0000 </r>
       <r>   -26.6865     0.0000     0.0000 </r>
       <r>   -26.5860     0.0000     0.0000 </r>
       <r>   -26.4855     0.0000     0.0000 </r>
       <r>   -26.3850     0.0000     0.0000 </r>
       <r>   -26.2845     0.0000     0.0000 </r>
       <r>   -26.1840    64.7100     6.5024 </r>
       <r>   -26.0835     0.0000    12.0000 </r>
       <r>   -25.9831     0.0000    12.0000 </r>
       <r>   -25.8826     0.0000    12.0000 </r>
       <r>   -25.7821     0.0000    12.0000 </r>
       <r>   -25.6816     0.0000    12.0000 </r>
       <r>   -25.5811     0.0000    12.0000 </r>
       <r>   -25.4806     0.0000    12.0000 </r>
       <r>   -25.3801     0.0000    12.0000 </r>
       <r>   -25.2797     0.0000    12.0000 </r>
       <r>   -25.1792     0.0000    12.0000 </r>
       <r>   -25.0787     0.0000    12.0000 </r>
       <r>   -24.9782    59.6963    17.9986 </r>
       <r>   -24.8777     0.0000    18.0000 </r>
       <r>   -24.7772     0.0000    18.0000 </r>
       <r>   -24.6767     0.0000    18.0000 </r>
       <r>   -24.5763     0.0000    18.0000 </r>
       <r>   -24.4758     0.0000    18.0000 </r>
       <r>   -24.3753     0.0000    18.0000 </r>
       <r>   -24.2748     0.0000    18.0000 </r>
       <r>   -24.1743     0.0000    18.0000 </r>
       <r>   -24.0738     0.0000    18.0000 </r>
       <r>   -23.9733    57.1995    23.7477 </r>
       <r>   -23.8728     0.0000    24.0000 </r>
       <r>   -23.7724     0.0000    24.0000 </r>
       <r>   -23.6719     0.0000    24.0000 </r>
       <r>   -23.5714     0.0000    24.0000 </r>
       <r>   -23.4709     0.0000    24.0000 </r>
       <r>   -23.3704     0.0000    24.0000 </r>
       <r>   -23.2699     0.0000    24.0000 </r>
       <r>   -23.1694    50.9919    29.1240 </r>
       <r>   -23.0690     0.0000    30.0000 </r>
       <r>   -22.9685     0.0000    30.0000 </r>
       <r>   -22.8680     0.0000    30.0000 </r>
       <r>   -22.7675     0.0000    30.0000 </r>
       <r>   -22.6670     0.0000    30.0000 </r>
       <r>   -22.5665     0.0050    30.0005 </r>
       <r>   -22.4660    59.7049    36.0000 </r>
       <r>   -22.3656     0.0000    36.0000 </r>
       <r>   -22.2651     0.0000    36.0000 </r>
       <r>   -22.1646     0.0000    36.0000 </r>
       <r>   -22.0641     0.0000    36.0000 </r>
       <r>   -21.9636    39.7876    39.9981 </r>
       <r>   -21.8631     0.0000    40.0000 </r>
       <r>   -21.7626     0.0000    40.0000 </r>
       <r>   -21.6622     0.0000    40.0000 </r>
       <r>   -21.5617     0.0000    40.0000 </r>
       <r>   -21.4612     0.0000    40.0000 </r>
       <r>   -21.3607     0.0000    40.0000 </r>
       <r>   -21.2602     0.0000    40.0000 </r>
       <r>   -21.1597     0.0000    40.0000 </r>
       <r>   -21.0592     0.0000    40.0000 </r>
       <r>   -20.9588     0.0000    40.0000 </r>
       <r>   -20.8583     0.0000    40.0000 </r>
       <r>   -20.7578     0.0000    40.0000 </r>
       <r>   -20.6573     0.0000    40.0000 </r>
       <r>   -20.5568     0.0000    40.0000 </r>
       <r>   -20.4563     0.0000    40.0000 </r>
       <r>   -20.3558     0.0000    40.0000 </r>
       <r>   -20.2554     0.0000    40.0000 </r>
       <r>   -20.1549     0.0000    40.0000 </r>
       <r>   -20.0544     0.0000    40.0000 </r>
       <r>   -19.9539     0.0000    40.0000 </r>
       <r>   -19.8534     8.2024    40.8242 </r>
       <r>   -19.7529    12.6303    43.8358 </r>
       <r>   -19.6524    10.2513    45.1968 </r>
       <r>   -19.5520    22.9950    47.6440 </r>
       <r>   -19.4515     0.0000    48.0000 </r>
       <r>   -19.3510     0.0000    48.0000 </r>
       <r>   -19.2505     0.0895    48.0090 </r>
       <r>   -19.1500     4.5322    48.6888 </r>
       <r>   -19.0495     7.4529    49.5489 </r>
       <r>   -18.9490     9.1083    50.6819 </r>
       <r>   -18.8486     6.3779    51.6742 </r>
       <r>   -18.7481     0.0000    54.0000 </r>
       <r>   -18.6476     0.0000    54.0000 </r>
       <r>   -18.5471     0.0000    54.0000 </r>
       <r>   -18.4466     0.0000    54.0000 </r>
       <r>   -18.3461     0.0000    54.0000 </r>
       <r>   -18.2456     0.0000    54.0000 </r>
       <r>   -18.1452     0.0000    54.0000 </r>
       <r>   -18.0447     0.0000    54.0000 </r>
       <r>   -17.9442     0.0000    54.0000 </r>
       <r>   -17.8437     0.0000    54.0000 </r>
       <r>   -17.7432     0.0000    54.0000 </r>
       <r>   -17.6427     0.0000    54.0000 </r>
       <r>   -17.5422     0.0000    54.0000 </r>
       <r>   -17.4418     7.4427    54.7479 </r>
       <r>   -17.3413    46.3595    59.9920 </r>
       <r>   -17.2408     0.0000    60.0000 </r>
       <r>   -17.1403     0.0000    60.0000 </r>
       <r>   -17.0398     0.0000    60.0000 </r>
       <r>   -16.9393     0.0000    60.0000 </r>
       <r>   -16.8388     0.0000    60.0000 </r>
       <r>   -16.7384    59.7099    66.0000 </r>
       <r>   -16.6379     0.0000    66.0000 </r>
       <r>   -16.5374     0.0000    66.0000 </r>
       <r>   -16.4369     0.0000    66.0000 </r>
       <r>   -16.3364     0.0001    66.0000 </r>
       <r>   -16.2359    28.7095    68.8849 </r>
       <r>   -16.1354    11.2635    70.1652 </r>
       <r>   -16.0350     7.8619    71.1234 </r>
       <r>   -15.9345     2.8333    71.4847 </r>
       <r>   -15.8340     3.5692    71.9253 </r>
       <r>   -15.7335     0.0000    72.0000 </r>
       <r>   -15.6330    21.9237    74.2030 </r>
       <r>   -15.5325     2.5402    74.5553 </r>
       <r>   -15.4320     2.3584    74.8703 </r>
       <r>   -15.3316     7.1157    75.6484 </r>
       <r>   -15.2311     5.6377    76.3665 </r>
       <r>   -15.1306     6.4913    77.1857 </r>
       <r>   -15.0301     3.6691    77.6354 </r>
       <r>   -14.9296    22.2249    80.0000 </r>
       <r>   -14.8291     0.0005    80.0000 </r>
       <r>   -14.7286     9.8157    80.9864 </r>
       <r>   -14.6282    19.5646    84.0000 </r>
       <r>   -14.5277     0.0000    84.0000 </r>
       <r>   -14.4272     0.0000    84.0000 </r>
       <r>   -14.3267     0.0000    84.0000 </r>
       <r>   -14.2262     0.0685    84.0069 </r>
       <r>   -14.1257    51.0809    90.0000 </r>
       <r>   -14.0252     0.0000    90.0000 </r>
       <r>   -13.9248     0.0000    90.0000 </r>
       <r>   -13.8243     1.2633    90.1269 </r>
       <r>   -13.7238    21.9939    94.0104 </r>
       <r>   -13.6233    30.8491    98.0000 </r>
       <r>   -13.5228     0.0000    98.0000 </r>
       <r>   -13.4223     0.0000    98.0000 </r>
       <r>   -13.3218     4.6619    98.4685 </r>
       <r>   -13.2214    23.2182   102.0000 </r>
       <r>   -13.1209     0.0000   102.0000 </r>
       <r>   -13.0204     0.0000   102.0000 </r>
       <r>   -12.9199     0.0000   102.0000 </r>
       <r>   -12.8194    12.3103   103.2370 </r>
       <r>   -12.7189    13.7734   105.1174 </r>
       <r>   -12.6184    26.5377   108.0000 </r>
       <r>   -12.5180     0.0000   108.0000 </r>
       <r>   -12.4175     0.0000   108.0000 </r>
       <r>   -12.3170     0.0000   108.0000 </r>
       <r>   -12.2165     8.0049   108.8044 </r>
       <r>   -12.1160    26.1865   111.9982 </r>
       <r>   -12.0155     0.0000   112.0000 </r>
       <r>   -11.9150     0.0000   112.0000 </r>
       <r>   -11.8145     0.0000   112.0000 </r>
       <r>   -11.7141     0.0000   112.0000 </r>
       <r>   -11.6136    79.9975   120.0386 </r>
       <r>   -11.5131    32.8361   123.9996 </r>
       <r>   -11.4126     0.0000   124.0000 </r>
       <r>   -11.3121     0.0000   124.0000 </r>
       <r>   -11.2116     0.0000   124.0000 </r>
       <r>   -11.1111    26.5764   126.6706 </r>
       <r>   -11.0107    58.0090   133.4297 </r>
       <r>   -10.9102    14.3144   136.8386 </r>
       <r>   -10.8097    14.4940   138.4898 </r>
       <r>   -10.7092     6.3948   139.6093 </r>
       <r>   -10.6087    19.8866   142.0000 </r>
       <r>   -10.5082    43.2186   146.3429 </r>
       <r>   -10.4077    17.7363   148.7825 </r>
       <r>   -10.3073    11.4214   150.0810 </r>
       <r>   -10.2068    35.8249   154.0000 </r>
       <r>   -10.1063    25.6924   156.5817 </r>
       <r>   -10.0058    24.7620   161.6217 </r>
       <r>    -9.9053     0.0000   166.0000 </r>
       <r>    -9.8048     0.0000   166.0000 </r>
       <r>    -9.7043     0.0000   166.0000 </r>
       <r>    -9.6039     0.0000   166.0000 </r>
       <r>    -9.5034     0.0000   166.0000 </r>
       <r>    -9.4029     0.5021   166.0505 </r>
       <r>    -9.3024     5.7542   166.9449 </r>
       <r>    -9.2019    12.4777   168.3540 </r>
       <r>    -9.1014    31.1249   171.9943 </r>
       <r>    -9.0009    54.4766   177.4742 </r>
       <r>    -8.9005     3.3166   178.0000 </r>
       <r>    -8.8000     0.0000   178.0000 </r>
       <r>    -8.6995     0.0000   178.0000 </r>
       <r>    -8.5990    24.9622   180.5084 </r>
       <r>    -8.4985    12.5387   181.9267 </r>
       <r>    -8.3980    16.5335   183.9948 </r>
       <r>    -8.2975     0.0000   184.0000 </r>
       <r>    -8.1971     0.0000   184.0000 </r>
       <r>    -8.0966     0.0000   184.0000 </r>
       <r>    -7.9961     0.0000   184.0000 </r>
       <r>    -7.8956     0.4301   184.0432 </r>
       <r>    -7.7951    32.8372   190.0000 </r>
       <r>    -7.6946     0.0000   190.0000 </r>
       <r>    -7.5941     0.0000   190.0000 </r>
       <r>    -7.4937     0.0000   190.0000 </r>
       <r>    -7.3932     0.0000   190.0000 </r>
       <r>    -7.2927     0.0000   190.0000 </r>
       <r>    -7.1922    58.2070   195.8490 </r>
       <r>    -7.0917    41.8045   200.2008 </r>
       <r>    -6.9912     7.6282   202.0000 </r>
       <r>    -6.8907     8.3709   202.8412 </r>
       <r>    -6.7903    51.0809   209.9996 </r>
       <r>    -6.6898     0.0000   210.0000 </r>
       <r>    -6.5893     0.0000   210.0000 </r>
       <r>    -6.4888    11.1015   211.1155 </r>
       <r>    -6.3883    36.1551   216.0000 </r>
       <r>    -6.2878     0.0000   216.0000 </r>
       <r>    -6.1873     0.0000   216.0000 </r>
       <r>    -6.0869    14.1060   217.4174 </r>
       <r>    -5.9864    14.7418   219.3814 </r>
       <r>    -5.8859    23.5514   222.0000 </r>
       <r>    -5.7854     0.0002   222.0000 </r>
       <r>    -5.6849    23.3357   224.3449 </r>
       <r>    -5.5844    26.2012   228.0000 </r>
       <r>    -5.4839    10.4687   229.0520 </r>
       <r>    -5.3835    38.4775   234.0000 </r>
       <r>    -5.2830     0.0000   234.0000 </r>
       <r>    -5.1825     0.0000   234.0000 </r>
       <r>    -5.0820     0.0000   234.0000 </r>
       <r>    -4.9815     0.0000   234.0000 </r>
       <r>    -4.8810     0.0000   234.0000 </r>
       <r>    -4.7805     0.0000   234.0000 </r>
       <r>    -4.6801     0.0000   234.0000 </r>
       <r>    -4.5796     0.0000   234.0000 </r>
       <r>    -4.4791     0.0000   234.0000 </r>
       <r>    -4.3786     0.0000   234.0000 </r>
       <r>    -4.2781     0.0000   234.0000 </r>
       <r>    -4.1776     0.0000   234.0000 </r>
       <r>    -4.0771     0.0000   234.0000 </r>
       <r>    -3.9767     0.0000   234.0000 </r>
       <r>    -3.8762     0.0000   234.0000 </r>
       <r>    -3.7757     0.0000   234.0000 </r>
       <r>    -3.6752     0.0000   234.0000 </r>
       <r>    -3.5747     0.0000   234.0000 </r>
       <r>    -3.4742     0.0000   234.0000 </r>
       <r>    -3.3737     0.0000   234.0000 </r>
       <r>    -3.2733     0.0000   234.0000 </r>
       <r>    -3.1728     0.0000   234.0000 </r>
       <r>    -3.0723     0.0000   234.0000 </r>
       <r>    -2.9718     0.0000   234.0000 </r>
       <r>    -2.8713    12.3575   235.2418 </r>
       <r>    -2.7708    15.0566   238.1464 </r>
       <r>    -2.6703     8.9349   239.3645 </r>
       <r>    -2.5699    24.8696   241.9990 </r>
       <r>    -2.4694     0.6322   242.0635 </r>
       <r>    -2.3689     6.3706   242.9402 </r>
       <r>    -2.2684    44.1179   248.0000 </r>
       <r>    -2.1679     0.0000   248.0000 </r>
       <r>    -2.0674     0.2106   248.0212 </r>
       <r>    -1.9669     5.6846   248.9046 </r>
       <r>    -1.8665     8.6681   249.9044 </r>
       <r>    -1.7660     6.8950   250.7929 </r>
       <r>    -1.6655     2.8133   251.2494 </r>
       <r>    -1.5650     2.1624   251.5173 </r>
       <r>    -1.4645     2.1131   251.7790 </r>
       <r>    -1.3640    22.2780   254.0720 </r>
       <r>    -1.2635     2.0298   254.3373 </r>
       <r>    -1.1631     2.2049   254.5883 </r>
       <r>    -1.0626     2.3316   254.8676 </r>
       <r>    -0.9621     6.3844   255.5749 </r>
       <r>    -0.8616     6.0569   256.3087 </r>
       <r>    -0.7611     7.1658   257.1868 </r>
       <r>    -0.6606     6.9277   257.9961 </r>
       <r>    -0.5601    21.9850   260.2092 </r>
       <r>    -0.4597     9.7048   261.9752 </r>
       <r>    -0.3592     0.0000   262.0000 </r>
       <r>    -0.2587    26.8183   264.6949 </r>
       <r>    -0.1582    44.7816   270.0000 </r>
       <r>    -0.0577     0.0000   270.0000 </r>
       <r>     0.0428     0.0000   270.0000 </r>
       <r>     0.1433     0.0000   270.0000 </r>
       <r>     0.2437     0.0000   270.0000 </r>
       <r>     0.3442     7.9448   270.7983 </r>
       <r>     0.4447    76.1396   278.7511 </r>
       <r>     0.5452    18.4139   281.2837 </r>
       <r>     0.6457    33.4070   286.4572 </r>
       <r>     0.7462    52.0962   294.3023 </r>
       <r>     0.8467    47.1476   300.2378 </r>
       <r>     0.9472    44.0325   305.5921 </r>
       <r>     1.0476    59.9850   312.2614 </r>
       <r>     1.1481    49.5155   318.5092 </r>
       <r>     1.2486     7.2965   320.0000 </r>
       <r>     1.3491     0.0000   320.0000 </r>
       <r>     1.4496     0.0000   320.0000 </r>
       <r>     1.5501     0.0000   320.0000 </r>
       <r>     1.6506     0.0000   320.0000 </r>
       <r>     1.7510     0.0000   320.0000 </r>
       <r>     1.8515     0.0000   320.0000 </r>
       <r>     1.9520     0.0000   320.0000 </r>
       <r>     2.0525     0.0000   320.0000 </r>
       <r>     2.1530     0.0000   320.0000 </r>
       <r>     2.2535     0.0000   320.0000 </r>
       <r>     2.3540     0.0000   320.0000 </r>
       <r>     2.4544     0.0000   320.0000 </r>
       <r>     2.5549     0.0000   320.0000 </r>
      </set>
     </set>
    </array>
   </total>
  </dos>
 </calculation>
 <structure name="finalpos" >
  <crystal>
   <varray name="basis" >
    <v>      21.97356049      -0.01986185       0.00000000 </v>
    <v>     -11.00400256      18.98395544       0.00000000 </v>
    <v>       0.00000000       0.00000000      20.00000000 </v>
   </varray>
   <i name="volume">   8338.53066700 </i>
   <varray name="rec_basis" >
    <v>       0.04553309       0.02639315       0.00000000 </v>
    <v>       0.00004764       0.05270367       0.00000000 </v>
    <v>       0.00000000       0.00000000       0.05000000 </v>
   </varray>
  </crystal>
  <varray name="positions" >
   <v>       0.43327759       0.94935877       0.48906493 </v>
   <v>       0.56159055       0.13621910       0.46542254 </v>
   <v>       0.05151729       0.47570549       0.48752577 </v>
   <v>       0.86555363       0.41882015       0.46357527 </v>
   <v>       0.52521203       0.56883731       0.48873391 </v>
   <v>       0.58352774       0.44088612       0.46424362 </v>
   <v>       0.57500724       0.04670710       0.51664254 </v>
   <v>       0.44620202       0.86007762       0.54144709 </v>
   <v>       0.95548861       0.52123636       0.51584080 </v>
   <v>       0.14129480       0.57750097       0.54066799 </v>
   <v>       0.48192801       0.42776964       0.51800165 </v>
   <v>       0.42335412       0.55556501       0.54187788 </v>
   <v>       0.33146125       0.82907041       0.56498977 </v>
   <v>       0.17268635       0.49337138       0.56022143 </v>
   <v>       0.50724757       0.67091944       0.56404153 </v>
   <v>       0.67621066       0.16770627       0.44062427 </v>
   <v>       0.83457897       0.50275622       0.44100075 </v>
   <v>       0.49960032       0.32517273       0.44358616 </v>
   <v>       0.26471315       0.61404415       0.55970980 </v>
   <v>       0.31517131       0.59283057       0.56028681 </v>
   <v>       0.38699369       0.64248210       0.56086846 </v>
   <v>       0.40839651       0.71435805       0.56171879 </v>
   <v>       0.28712324       0.68595614       0.56047428 </v>
   <v>       0.18911129       0.55551457       0.55436591 </v>
   <v>       0.44526862       0.62530333       0.55663144 </v>
   <v>       0.74221528       0.38232509       0.44476131 </v>
   <v>       0.69172835       0.40350038       0.44495954 </v>
   <v>       0.61991028       0.35379217       0.44548522 </v>
   <v>       0.59858900       0.28190417       0.44509951 </v>
   <v>       0.71989877       0.31045980       0.44427239 </v>
   <v>       0.81790971       0.44074056       0.44876867 </v>
   <v>       0.56163186       0.37096873       0.45020023 </v>
   <v>       0.46296259       0.01639499       0.47003097 </v>
   <v>       0.53393042       0.06546985       0.48376130 </v>
   <v>       0.98458082       0.43895708       0.46833305 </v>
   <v>       0.93618062       0.46143178       0.48234605 </v>
   <v>       0.56249745       0.53940228       0.46936336 </v>
   <v>       0.54094817       0.46859188       0.48363556 </v>
   <v>       0.35896968       0.73660190       0.56098558 </v>
   <v>       0.37659985       0.81238368       0.55688047 </v>
   <v>       0.64809974       0.25974497       0.44497331 </v>
   <v>       0.63090765       0.18409283       0.44922725 </v>
   <v>       0.47421319       0.93067223       0.52231649 </v>
   <v>       0.54533602       0.97964215       0.53562005 </v>
   <v>       0.07080852       0.53533803       0.52127755 </v>
   <v>       0.02245856       0.55801907       0.53499196 </v>
   <v>       0.46609738       0.52793322       0.52292316 </v>
   <v>       0.44466706       0.45721705       0.53739585 </v>
   <v>       0.46521818       0.75041049       0.56238569 </v>
   <v>       0.25126584       0.70681827       0.55998585 </v>
   <v>       0.29424917       0.53595815       0.55953665 </v>
   <v>       0.54177766       0.24576895       0.44544843 </v>
   <v>       0.75585074       0.28971214       0.44387029 </v>
   <v>       0.71258261       0.46036316       0.44532222 </v>
   <v>       0.42976658       0.03175098       0.44232042 </v>
   <v>       0.52647791       0.15330947       0.46326040 </v>
   <v>       0.96871421       0.39035468       0.44029218 </v>
   <v>       0.84796923       0.36638834       0.46139004 </v>
   <v>       0.61067530       0.57266757       0.44097956 </v>
   <v>       0.63571558       0.47619534       0.46053748 </v>
   <v>       0.57870870       0.96421369       0.56290663 </v>
   <v>       0.48095300       0.84252529       0.54332279 </v>
   <v>       0.03835138       0.60678177       0.56275465 </v>
   <v>       0.15856829       0.62975832       0.54479981 </v>
   <v>       0.39660878       0.42401751       0.56597047 </v>
   <v>       0.37110437       0.52033200       0.54497923 </v>
  </varray>
 </structure>
</modeling>
