<?xml version="1.0" encoding="ISO-8859-1"?>
<modeling>
 <generator>
  <i name="program" type="string">vasp </i>
  <i name="version" type="string">5.4.4.18Apr17-6-g9f103f2a35  </i>
  <i name="subversion" type="string">(build Jun 07 2020 16:50:00) complex            parallel </i>
  <i name="platform" type="string">LinuxIFC </i>
  <i name="date" type="string">2023 02 20 </i>
  <i name="time" type="string">16:03:44 </i>
 </generator>
 <incar>
  <i type="string" name="SYSTEM">Simulation for cell shape cell volume r</i>
  <i type="int" name="ISTART">     1</i>
  <i type="string" name="PREC">high</i>
  <i type="string" name="ALGO">48</i>
  <i type="int" name="ICHARG">    11</i>
  <i type="int" name="NELM">   200</i>
  <i type="int" name="IBRION">    -1</i>
  <i name="EDIFF">      0.00001000</i>
  <i name="EDIFFG">     -0.01000000</i>
  <i type="int" name="NSW">     0</i>
  <i type="int" name="ISIF">     2</i>
  <i name="ENCUT">    500.00000000</i>
  <i name="POTIM">      0.30000000</i>
  <i type="string" name="LREAL">A</i>
  <i type="int" name="ISMEAR">     0</i>
  <i name="SIGMA">      0.01000000</i>
  <i type="int" name="NWRITE">     0</i>
  <i type="logical" name="LWAVE"> F  </i>
  <i type="logical" name="LCHARG"> F  </i>
  <v type="int" name="KPOINT_BSE">    -1     0     0     0</v>
  <i type="int" name="NELM">   200</i>
  <i type="string" name="GGA">PE</i>
 </incar>
 <structure name="primitive_cell" >
  <crystal>
   <varray name="basis" >
    <v>      29.26584742       0.00435002       0.00000000 </v>
    <v>     -14.62914169      25.28678945       0.00000000 </v>
    <v>       0.00000000       0.00000000      20.00000000 </v>
   </varray>
   <i name="volume">  14802.05918235 </i>
   <varray name="rec_basis" >
    <v>       0.03416658       0.01976636       0.00000000 </v>
    <v>      -0.00000588       0.03954294       0.00000000 </v>
    <v>       0.00000000       0.00000000       0.05000000 </v>
   </varray>
  </crystal>
  <varray name="positions" >
   <v>      -0.49512064      -0.37979930      -0.46162418 </v>
   <v>       0.46399004      -0.39776047      -0.47818938 </v>
   <v>       0.43707360      -0.45156177      -0.49613220 </v>
   <v>       0.43883717      -0.36819912      -0.48159894 </v>
   <v>       0.45969779      -0.32638087      -0.46846315 </v>
   <v>      -0.49622496      -0.46674425      -0.44742560 </v>
   <v>       0.46490166      -0.48189226      -0.49282197 </v>
   <v>       0.38404216      -0.47513928       0.48345646 </v>
   <v>       0.38563390      -0.39204451       0.49886660 </v>
   <v>      -0.46938920      -0.49259267      -0.44547023 </v>
   <v>       0.35839832      -0.44593210       0.48184690 </v>
   <v>       0.45266283       0.47482318       0.46486959 </v>
   <v>      -0.38867755      -0.43045796      -0.39066370 </v>
   <v>       0.36215741       0.48297532       0.47048227 </v>
   <v>      -0.42839118      -0.47466380      -0.39011596 </v>
   <v>       0.42034997       0.46073328       0.42878033 </v>
   <v>       0.35844118      -0.36093182       0.49742750 </v>
   <v>      -0.47922232       0.46647365      -0.49131942 </v>
   <v>       0.48027828       0.44995261       0.46510552 </v>
   <v>       0.38851440      -0.30789722       0.49691204 </v>
   <v>       0.31698319      -0.46433061       0.46755519 </v>
   <v>      -0.43983402       0.48928849      -0.34048619 </v>
   <v>       0.46501078      -0.21964533       0.46678182 </v>
   <v>      -0.47172620       0.45248721      -0.34280198 </v>
   <v>       0.30532666      -0.38764202       0.49750165 </v>
   <v>      -0.37217124      -0.48954315      -0.47619295 </v>
   <v>      -0.41321633       0.49808720      -0.30321614 </v>
   <v>      -0.44766742       0.43982590      -0.49434953 </v>
   <v>       0.36184985      -0.28141078       0.49712254 </v>
   <v>       0.44673531      -0.19645781       0.48088891 </v>
   <v>      -0.39263463       0.46787914      -0.48479994 </v>
   <v>       0.39297285      -0.22299770       0.49809676 </v>
   <v>       0.28242760      -0.35757579       0.49740330 </v>
   <v>       0.30888712      -0.30435308       0.49726863 </v>
   <v>      -0.47288719       0.38527841       0.49204093 </v>
   <v>       0.48466847       0.36386121       0.48307987 </v>
   <v>      -0.48222823      -0.12163380       0.46902664 </v>
   <v>       0.47598681      -0.14151603       0.48212366 </v>
   <v>       0.21532961      -0.45914990      -0.46897383 </v>
   <v>      -0.36382043       0.44186927      -0.48773442 </v>
   <v>       0.22411760      -0.38489179       0.49829682 </v>
   <v>       0.36930993      -0.19339230      -0.48258565 </v>
   <v>       0.19454243      -0.43823074      -0.48235908 </v>
   <v>      -0.32114902       0.46355918      -0.48099267 </v>
   <v>      -0.44422268       0.35913304       0.49038693 </v>
   <v>       0.32758782      -0.21422216      -0.46933692 </v>
   <v>       0.45259372      -0.11181792      -0.49764927 </v>
   <v>      -0.38931092       0.38711301      -0.49928432 </v>
   <v>       0.39892486      -0.13858436      -0.47951723 </v>
   <v>       0.19765703      -0.35761217       0.48091206 </v>
   <v>      -0.46374032       0.31674639       0.48093683 </v>
   <v>       0.22079603      -0.31610068       0.46675027 </v>
   <v>      -0.45974285      -0.04081777       0.42715221 </v>
   <v>       0.13982106      -0.46345620      -0.47943729 </v>
   <v>       0.48297101      -0.05354959      -0.49453965 </v>
   <v>       0.38110102      -0.11548583      -0.46303353 </v>
   <v>       0.11673881       0.49556387      -0.46294999 </v>
   <v>      -0.47374318      -0.02249570       0.46324737 </v>
   <v>      -0.35885798       0.35919495       0.49961995 </v>
   <v>       0.14282235      -0.38331778       0.48203923 </v>
   <v>      -0.30582072       0.38861865       0.49986836 </v>
   <v>       0.11314672      -0.43648613      -0.49773013 </v>
   <v>       0.46781428      -0.02971461      -0.44927564 </v>
   <v>      -0.38620563       0.30600757       0.49911610 </v>
   <v>      -0.21702050       0.46637372       0.48087653 </v>
   <v>      -0.44871216       0.03009750       0.46362192 </v>
   <v>       0.12299276      -0.36137016       0.46885519 </v>
   <v>       0.49371160       0.02305829      -0.44726848 </v>
   <v>      -0.28011545       0.36120535       0.49902789 </v>
   <v>       0.05498893      -0.46426038      -0.49483186 </v>
   <v>      -0.19444815       0.44652310       0.48965716 </v>
   <v>      -0.46516289       0.05417990      -0.49283105 </v>
   <v>      -0.46105330       0.21600121      -0.48173382 </v>
   <v>      -0.35692721       0.28226152       0.49880901 </v>
   <v>       0.03090457       0.49680358      -0.44949441 </v>
   <v>      -0.22175668       0.39147986       0.49961663 </v>
   <v>      -0.11828576      -0.48253656       0.48220509 </v>
   <v>      -0.30384288       0.30809488       0.49838947 </v>
   <v>      -0.45232898       0.07418865      -0.34339373 </v>
   <v>       0.47574160       0.04637725      -0.39219897 </v>
   <v>      -0.13962757       0.47489826       0.49085847 </v>
   <v>      -0.36255391       0.12031553       0.48196251 </v>
   <v>       0.04280193      -0.41946892       0.42654913 </v>
   <v>       0.02429859      -0.45177525       0.46269972 </v>
   <v>      -0.48865896       0.07031875      -0.34199371 </v>
   <v>      -0.43962850       0.19476212      -0.48864175 </v>
   <v>      -0.38496820       0.22379436       0.49975662 </v>
   <v>       0.43201433       0.04282635      -0.39356830 </v>
   <v>      -0.43820712       0.11250845      -0.49556303 </v>
   <v>      -0.02175589       0.47023321      -0.44761721 </v>
   <v>      -0.38372189       0.14160749       0.49094632 </v>
   <v>      -0.04201027       0.38895193      -0.39257911 </v>
   <v>      -0.49745420       0.08814609      -0.30471355 </v>
   <v>      -0.19289683       0.36555062      -0.48962236 </v>
   <v>      -0.04541094       0.42929120      -0.39217188 </v>
   <v>      -0.11071299       0.44922356      -0.49629541 </v>
   <v>      -0.02819912      -0.47910930       0.46291844 </v>
   <v>       0.49158987       0.11794989      -0.47727693 </v>
   <v>      -0.46590313       0.13984511      -0.48587458 </v>
   <v>      -0.21419445       0.32278648      -0.48309903 </v>
   <v>      -0.05251105       0.48041207      -0.49347789 </v>
   <v>      -0.35731745       0.19652147       0.48940754 </v>
   <v>      -0.13807216       0.39406456      -0.48709665 </v>
   <v>      -0.06941786       0.44155066      -0.34267669 </v>
   <v>      -0.31498693       0.21918969       0.48001635 </v>
   <v>      -0.07335531       0.47400601      -0.34507865 </v>
   <v>      -0.08761214       0.41512881      -0.30525412 </v>
   <v>      -0.11626217       0.37329770      -0.47895634 </v>
  </varray>
 </structure>
 <varray name="primitive_index" >
  <v type="int" >        1 </v>
  <v type="int" >       63 </v>
  <v type="int" >       64 </v>
  <v type="int" >       62 </v>
  <v type="int" >        2 </v>
  <v type="int" >       42 </v>
  <v type="int" >       99 </v>
  <v type="int" >       65 </v>
  <v type="int" >       61 </v>
  <v type="int" >      100 </v>
  <v type="int" >       66 </v>
  <v type="int" >      107 </v>
  <v type="int" >       50 </v>
  <v type="int" >        3 </v>
  <v type="int" >      101 </v>
  <v type="int" >       32 </v>
  <v type="int" >       52 </v>
  <v type="int" >       98 </v>
  <v type="int" >       47 </v>
  <v type="int" >       34 </v>
  <v type="int" >        4 </v>
  <v type="int" >       43 </v>
  <v type="int" >       12 </v>
  <v type="int" >       27 </v>
  <v type="int" >       36 </v>
  <v type="int" >       15 </v>
  <v type="int" >       28 </v>
  <v type="int" >       85 </v>
  <v type="int" >       53 </v>
  <v type="int" >       56 </v>
  <v type="int" >       86 </v>
  <v type="int" >       55 </v>
  <v type="int" >       54 </v>
  <v type="int" >       35 </v>
  <v type="int" >       84 </v>
  <v type="int" >       13 </v>
  <v type="int" >       11 </v>
  <v type="int" >       57 </v>
  <v type="int" >        5 </v>
  <v type="int" >       87 </v>
  <v type="int" >       67 </v>
  <v type="int" >       60 </v>
  <v type="int" >       68 </v>
  <v type="int" >       16 </v>
  <v type="int" >       83 </v>
  <v type="int" >        9 </v>
  <v type="int" >       58 </v>
  <v type="int" >       82 </v>
  <v type="int" >       59 </v>
  <v type="int" >       72 </v>
  <v type="int" >       14 </v>
  <v type="int" >        7 </v>
  <v type="int" >       31 </v>
  <v type="int" >       69 </v>
  <v type="int" >       95 </v>
  <v type="int" >       10 </v>
  <v type="int" >        6 </v>
  <v type="int" >      106 </v>
  <v type="int" >       73 </v>
  <v type="int" >       71 </v>
  <v type="int" >       39 </v>
  <v type="int" >       70 </v>
  <v type="int" >       40 </v>
  <v type="int" >       37 </v>
  <v type="int" >       17 </v>
  <v type="int" >       46 </v>
  <v type="int" >        8 </v>
  <v type="int" >       96 </v>
  <v type="int" >       75 </v>
  <v type="int" >      103 </v>
  <v type="int" >       89 </v>
  <v type="int" >       94 </v>
  <v type="int" >       24 </v>
  <v type="int" >       74 </v>
  <v type="int" >       44 </v>
  <v type="int" >       88 </v>
  <v type="int" >       18 </v>
  <v type="int" >       38 </v>
  <v type="int" >       25 </v>
  <v type="int" >       97 </v>
  <v type="int" >       90 </v>
  <v type="int" >       22 </v>
  <v type="int" >       33 </v>
  <v type="int" >      108 </v>
  <v type="int" >       41 </v>
  <v type="int" >       77 </v>
  <v type="int" >       76 </v>
  <v type="int" >       49 </v>
  <v type="int" >       79 </v>
  <v type="int" >      104 </v>
  <v type="int" >       80 </v>
  <v type="int" >       51 </v>
  <v type="int" >       26 </v>
  <v type="int" >       93 </v>
  <v type="int" >      105 </v>
  <v type="int" >       91 </v>
  <v type="int" >       48 </v>
  <v type="int" >       23 </v>
  <v type="int" >       78 </v>
  <v type="int" >       19 </v>
  <v type="int" >      102 </v>
  <v type="int" >       81 </v>
  <v type="int" >       92 </v>
  <v type="int" >       45 </v>
  <v type="int" >       21 </v>
  <v type="int" >       29 </v>
  <v type="int" >       30 </v>
  <v type="int" >       20 </v>
 </varray>
 <kpoints>
  <generation param="listgenerated">
   <i name="divisions" type="int">      20 </i>
   <v>       0.00000000       0.00000000       0.00000000 </v>
   <v>       0.50000000       0.00000000       0.00000000 </v>
   <v>       0.33333333       0.33333333       0.00000000 </v>
   <v>       0.00000000       0.00000000       0.00000000 </v>
  </generation>
  <varray name="kpointlist" >
   <v>       0.00000000       0.00000000       0.00000000 </v>
   <v>       0.02631579       0.00000000       0.00000000 </v>
   <v>       0.05263158       0.00000000       0.00000000 </v>
   <v>       0.07894737       0.00000000       0.00000000 </v>
   <v>       0.10526316       0.00000000       0.00000000 </v>
   <v>       0.13157895       0.00000000       0.00000000 </v>
   <v>       0.15789474       0.00000000       0.00000000 </v>
   <v>       0.18421053       0.00000000       0.00000000 </v>
   <v>       0.21052632       0.00000000       0.00000000 </v>
   <v>       0.23684211       0.00000000       0.00000000 </v>
   <v>       0.26315789       0.00000000       0.00000000 </v>
   <v>       0.28947368       0.00000000       0.00000000 </v>
   <v>       0.31578947       0.00000000       0.00000000 </v>
   <v>       0.34210526       0.00000000       0.00000000 </v>
   <v>       0.36842105       0.00000000       0.00000000 </v>
   <v>       0.39473684       0.00000000       0.00000000 </v>
   <v>       0.42105263       0.00000000       0.00000000 </v>
   <v>       0.44736842       0.00000000       0.00000000 </v>
   <v>       0.47368421       0.00000000       0.00000000 </v>
   <v>       0.50000000       0.00000000       0.00000000 </v>
   <v>       0.50000000       0.00000000       0.00000000 </v>
   <v>       0.49122807       0.01754386       0.00000000 </v>
   <v>       0.48245614       0.03508772       0.00000000 </v>
   <v>       0.47368421       0.05263158       0.00000000 </v>
   <v>       0.46491228       0.07017544       0.00000000 </v>
   <v>       0.45614035       0.08771930       0.00000000 </v>
   <v>       0.44736842       0.10526316       0.00000000 </v>
   <v>       0.43859649       0.12280702       0.00000000 </v>
   <v>       0.42982456       0.14035088       0.00000000 </v>
   <v>       0.42105263       0.15789474       0.00000000 </v>
   <v>       0.41228070       0.17543860       0.00000000 </v>
   <v>       0.40350877       0.19298246       0.00000000 </v>
   <v>       0.39473684       0.21052632       0.00000000 </v>
   <v>       0.38596491       0.22807018       0.00000000 </v>
   <v>       0.37719298       0.24561404       0.00000000 </v>
   <v>       0.36842105       0.26315789       0.00000000 </v>
   <v>       0.35964912       0.28070175       0.00000000 </v>
   <v>       0.35087719       0.29824561       0.00000000 </v>
   <v>       0.34210526       0.31578947       0.00000000 </v>
   <v>       0.33333333       0.33333333       0.00000000 </v>
   <v>       0.33333333       0.33333333       0.00000000 </v>
   <v>       0.31578947       0.31578947       0.00000000 </v>
   <v>       0.29824561       0.29824561       0.00000000 </v>
   <v>       0.28070175       0.28070175       0.00000000 </v>
   <v>       0.26315789       0.26315789       0.00000000 </v>
   <v>       0.24561404       0.24561404       0.00000000 </v>
   <v>       0.22807018       0.22807018       0.00000000 </v>
   <v>       0.21052632       0.21052632       0.00000000 </v>
   <v>       0.19298246       0.19298246       0.00000000 </v>
   <v>       0.17543860       0.17543860       0.00000000 </v>
   <v>       0.15789474       0.15789474       0.00000000 </v>
   <v>       0.14035088       0.14035088       0.00000000 </v>
   <v>       0.12280702       0.12280702       0.00000000 </v>
   <v>       0.10526316       0.10526316       0.00000000 </v>
   <v>       0.08771930       0.08771930       0.00000000 </v>
   <v>       0.07017544       0.07017544       0.00000000 </v>
   <v>       0.05263158       0.05263158       0.00000000 </v>
   <v>       0.03508772       0.03508772       0.00000000 </v>
   <v>       0.01754386       0.01754386       0.00000000 </v>
   <v>       0.00000000       0.00000000       0.00000000 </v>
  </varray>
  <varray name="weights" >
   <v>       0.01666667 </v>
   <v>       0.01666667 </v>
   <v>       0.01666667 </v>
   <v>       0.01666667 </v>
   <v>       0.01666667 </v>
   <v>       0.01666667 </v>
   <v>       0.01666667 </v>
   <v>       0.01666667 </v>
   <v>       0.01666667 </v>
   <v>       0.01666667 </v>
   <v>       0.01666667 </v>
   <v>       0.01666667 </v>
   <v>       0.01666667 </v>
   <v>       0.01666667 </v>
   <v>       0.01666667 </v>
   <v>       0.01666667 </v>
   <v>       0.01666667 </v>
   <v>       0.01666667 </v>
   <v>       0.01666667 </v>
   <v>       0.01666667 </v>
   <v>       0.01666667 </v>
   <v>       0.01666667 </v>
   <v>       0.01666667 </v>
   <v>       0.01666667 </v>
   <v>       0.01666667 </v>
   <v>       0.01666667 </v>
   <v>       0.01666667 </v>
   <v>       0.01666667 </v>
   <v>       0.01666667 </v>
   <v>       0.01666667 </v>
   <v>       0.01666667 </v>
   <v>       0.01666667 </v>
   <v>       0.01666667 </v>
   <v>       0.01666667 </v>
   <v>       0.01666667 </v>
   <v>       0.01666667 </v>
   <v>       0.01666667 </v>
   <v>       0.01666667 </v>
   <v>       0.01666667 </v>
   <v>       0.01666667 </v>
   <v>       0.01666667 </v>
   <v>       0.01666667 </v>
   <v>       0.01666667 </v>
   <v>       0.01666667 </v>
   <v>       0.01666667 </v>
   <v>       0.01666667 </v>
   <v>       0.01666667 </v>
   <v>       0.01666667 </v>
   <v>       0.01666667 </v>
   <v>       0.01666667 </v>
   <v>       0.01666667 </v>
   <v>       0.01666667 </v>
   <v>       0.01666667 </v>
   <v>       0.01666667 </v>
   <v>       0.01666667 </v>
   <v>       0.01666667 </v>
   <v>       0.01666667 </v>
   <v>       0.01666667 </v>
   <v>       0.01666667 </v>
   <v>       0.01666667 </v>
  </varray>
 </kpoints>
 <parameters>
  <separator name="general" >
   <i type="string" name="SYSTEM">Simulation for cell shape cell volume r</i>
   <i type="logical" name="LCOMPAT"> F  </i>
  </separator>
  <separator name="electronic" >
   <i type="string" name="PREC">high</i>
   <i name="ENMAX">    500.00000000</i>
   <i name="ENAUG">    644.87300000</i>
   <i name="EDIFF">      0.00001000</i>
   <i type="int" name="IALGO">    38</i>
   <i type="int" name="IWAVPR">    10</i>
   <i type="int" name="NBANDS">   240</i>
   <i name="NELECT">    354.00000000</i>
   <i type="int" name="TURBO">     0</i>
   <i type="int" name="IRESTART">     0</i>
   <i type="int" name="NREBOOT">     0</i>
   <i type="int" name="NMIN">     0</i>
   <i name="EREF">      0.00000000</i>
   <separator name="electronic smearing" >
    <i type="int" name="ISMEAR">     0</i>
    <i name="SIGMA">      0.01000000</i>
    <i name="KSPACING">      0.50000000</i>
    <i type="logical" name="KGAMMA"> T  </i>
   </separator>
   <separator name="electronic projectors" >
    <i type="logical" name="LREAL"> T  </i>
    <v name="ROPT">     -0.00040000     -0.00040000     -0.00040000     -0.00040000</v>
    <i type="int" name="LMAXPAW">  -100</i>
    <i type="int" name="LMAXMIX">     2</i>
    <i type="logical" name="NLSPLINE"> F  </i>
   </separator>
   <separator name="electronic startup" >
    <i type="int" name="ISTART">     1</i>
    <i type="int" name="ICHARG">    11</i>
    <i type="int" name="INIWAV">     1</i>
   </separator>
   <separator name="electronic spin" >
    <i type="int" name="ISPIN">     1</i>
    <i type="logical" name="LNONCOLLINEAR"> F  </i>
    <v name="MAGMOM">      1.00000000      1.00000000      1.00000000      1.00000000      1.00000000      1.00000000      1.00000000      1.00000000      1.00000000      1.00000000      1.00000000      1.00000000      1.00000000      1.00000000      1.00000000      1.00000000      1.00000000      1.00000000      1.00000000      1.00000000
      1.00000000      1.00000000      1.00000000      1.00000000      1.00000000      1.00000000      1.00000000      1.00000000      1.00000000      1.00000000      1.00000000      1.00000000      1.00000000      1.00000000      1.00000000      1.00000000      1.00000000      1.00000000      1.00000000      1.00000000
      1.00000000      1.00000000      1.00000000      1.00000000      1.00000000      1.00000000      1.00000000      1.00000000      1.00000000      1.00000000      1.00000000      1.00000000      1.00000000      1.00000000      1.00000000      1.00000000      1.00000000      1.00000000      1.00000000      1.00000000
      1.00000000      1.00000000      1.00000000      1.00000000      1.00000000      1.00000000      1.00000000      1.00000000      1.00000000      1.00000000      1.00000000      1.00000000      1.00000000      1.00000000      1.00000000      1.00000000      1.00000000      1.00000000      1.00000000      1.00000000
      1.00000000      1.00000000      1.00000000      1.00000000      1.00000000      1.00000000      1.00000000      1.00000000      1.00000000      1.00000000      1.00000000      1.00000000      1.00000000      1.00000000      1.00000000      1.00000000      1.00000000      1.00000000      1.00000000      1.00000000
      1.00000000      1.00000000      1.00000000      1.00000000      1.00000000      1.00000000      1.00000000      1.00000000</v>
    <i name="NUPDOWN">     -1.00000000</i>
    <i type="logical" name="LSORBIT"> F  </i>
    <v name="SAXIS">      0.00000000      0.00000000      1.00000000</v>
    <i type="logical" name="LSPIRAL"> F  </i>
    <v name="QSPIRAL">      0.00000000      0.00000000      0.00000000</v>
    <i type="logical" name="LZEROZ"> F  </i>
   </separator>
   <separator name="electronic exchange-correlation" >
    <i type="logical" name="LASPH"> F  </i>
    <i type="logical" name="LMETAGGA"> F  </i>
   </separator>
   <separator name="electronic convergence" >
    <i type="int" name="NELM">   200</i>
    <i type="int" name="NELMDL">     0</i>
    <i type="int" name="NELMIN">     2</i>
    <i name="ENINI">    500.00000000</i>
    <separator name="electronic convergence detail" >
     <i type="logical" name="LDIAG"> T  </i>
     <i type="logical" name="LSUBROT"> F  </i>
     <i name="WEIMIN">      0.00000000</i>
     <i name="EBREAK">      0.00000001</i>
     <i name="DEPER">      0.30000000</i>
     <i type="int" name="NRMM">     4</i>
     <i name="TIME">      0.40000000</i>
    </separator>
   </separator>
   <separator name="electronic mixer" >
    <i name="AMIX">      0.40000000</i>
    <i name="BMIX">      1.00000000</i>
    <i name="AMIN">      0.10000000</i>
    <i name="AMIX_MAG">      1.60000000</i>
    <i name="BMIX_MAG">      1.00000000</i>
    <separator name="electronic mixer details" >
     <i type="int" name="IMIX">     4</i>
     <i type="logical" name="MIXFIRST"> F  </i>
     <i type="int" name="MAXMIX">   -45</i>
     <i name="WC">    100.00000000</i>
     <i type="int" name="INIMIX">     1</i>
     <i type="int" name="MIXPRE">     1</i>
     <i type="int" name="MREMOVE">     5</i>
    </separator>
   </separator>
   <separator name="electronic dipolcorrection" >
    <i type="logical" name="LDIPOL"> F  </i>
    <i type="logical" name="LMONO"> F  </i>
    <i type="int" name="IDIPOL">     0</i>
    <i name="EPSILON">      1.00000000</i>
    <v name="DIPOL">   -100.00000000   -100.00000000   -100.00000000</v>
    <i name="EFIELD">      0.00000000</i>
   </separator>
  </separator>
  <separator name="grids" >
   <i type="int" name="NGX">   216</i>
   <i type="int" name="NGY">   216</i>
   <i type="int" name="NGZ">   150</i>
   <i type="int" name="NGXF">   324</i>
   <i type="int" name="NGYF">   324</i>
   <i type="int" name="NGZF">   224</i>
   <i type="logical" name="ADDGRID"> F  </i>
  </separator>
  <separator name="ionic" >
   <i type="int" name="NSW">     0</i>
   <i type="int" name="IBRION">    -1</i>
   <i type="int" name="MDALGO">     0</i>
   <i type="int" name="ISIF">     2</i>
   <i name="PSTRESS">      0.00000000</i>
   <i name="EDIFFG">     -0.01000000</i>
   <i type="int" name="NFREE">     0</i>
   <i name="POTIM">      0.30000000</i>
   <i name="SMASS">     -3.00000000</i>
   <i name="SCALEE">      1.00000000</i>
  </separator>
  <separator name="ionic md" >
   <i name="TEBEG">      0.00010000</i>
   <i name="TEEND">      0.00010000</i>
   <i type="int" name="NBLOCK">     1</i>
   <i type="int" name="KBLOCK">     1</i>
   <i type="int" name="NPACO">   256</i>
   <i name="APACO">     16.00000000</i>
  </separator>
  <separator name="symmetry" >
   <i type="int" name="ISYM">     2</i>
   <i name="SYMPREC">      0.00001000</i>
  </separator>
  <separator name="dos" >
   <i type="int" name="LORBIT">     0</i>
   <v name="RWIGS">     -1.00000000     -1.00000000     -1.00000000     -1.00000000</v>
   <i type="int" name="NEDOS">   301</i>
   <i name="EMIN">     10.00000000</i>
   <i name="EMAX">    -10.00000000</i>
   <i name="EFERMI">      0.00000000</i>
  </separator>
  <separator name="writing" >
   <i type="int" name="NWRITE">     0</i>
   <i type="logical" name="LWAVE"> F  </i>
   <i type="logical" name="LDOWNSAMPLE"> F  </i>
   <i type="logical" name="LCHARG"> F  </i>
   <i type="logical" name="LPARD"> F  </i>
   <i type="logical" name="LVTOT"> F  </i>
   <i type="logical" name="LVHAR"> F  </i>
   <i type="logical" name="LELF"> F  </i>
   <i type="logical" name="LOPTICS"> F  </i>
   <v name="STM">      0.00000000      0.00000000      0.00000000      0.00000000      0.00000000      0.00000000      0.00000000</v>
  </separator>
  <separator name="performance" >
   <i type="int" name="NPAR">    16</i>
   <i type="int" name="NSIM">     4</i>
   <i type="int" name="NBLK">    -1</i>
   <i type="logical" name="LPLANE"> T  </i>
   <i type="logical" name="LSCALAPACK"> T  </i>
   <i type="logical" name="LSCAAWARE"> F  </i>
   <i type="logical" name="LSCALU"> F  </i>
   <i type="logical" name="LASYNC"> F  </i>
   <i type="logical" name="LORBITALREAL"> F  </i>
  </separator>
  <separator name="miscellaneous" >
   <i type="int" name="IDIOT">     3</i>
   <i type="int" name="ISPECIAL">     0</i>
   <i type="logical" name="LMUSIC"> F  </i>
   <v name="POMASS">      1.00000000     14.00100000     16.00000000     12.01100000</v>
   <v name="DARWINR">      0.00000000      0.00000000      0.00000000      0.00000000</v>
   <v name="DARWINV">      1.00000000      1.00000000      1.00000000      1.00000000</v>
   <i type="logical" name="LCORR"> T  </i>
  </separator>
  <i type="logical" name="GGA_COMPAT"> T  </i>
  <i type="logical" name="LBERRY"> F  </i>
  <i type="int" name="ICORELEVEL">     0</i>
  <i type="logical" name="LDAU"> F  </i>
  <i type="int" name="I_CONSTRAINED_M">     0</i>
  <separator name="electronic exchange-correlation" >
   <i type="string" name="GGA">PE</i>
   <i type="int" name="VOSKOWN">     0</i>
   <i type="logical" name="LHFCALC"> F  </i>
   <i type="string" name="PRECFOCK"></i>
   <i type="logical" name="LSYMGRAD"> F  </i>
   <i type="logical" name="LHFONE"> F  </i>
   <i type="logical" name="LRHFCALC"> F  </i>
   <i type="logical" name="LTHOMAS"> F  </i>
   <i type="logical" name="LMODELHF"> F  </i>
   <i name="ENCUT4O">     -1.00000000</i>
   <i type="int" name="EXXOEP">     0</i>
   <i type="int" name="FOURORBIT">     0</i>
   <i name="AEXX">      0.00000000</i>
   <i name="HFALPHA">      0.00000000</i>
   <i name="MCALPHA">      0.00000000</i>
   <i name="ALDAX">      1.00000000</i>
   <i name="AGGAX">      1.00000000</i>
   <i name="ALDAC">      1.00000000</i>
   <i name="AGGAC">      1.00000000</i>
   <i type="int" name="NKREDX">     1</i>
   <i type="int" name="NKREDY">     1</i>
   <i type="int" name="NKREDZ">     1</i>
   <i type="logical" name="SHIFTRED"> F  </i>
   <i type="logical" name="ODDONLY"> F  </i>
   <i type="logical" name="EVENONLY"> F  </i>
   <i type="int" name="LMAXFOCK">     0</i>
   <i type="int" name="NMAXFOCKAE">     0</i>
   <i type="logical" name="LFOCKAEDFT"> F  </i>
   <i name="HFSCREEN">      0.00000000</i>
   <i name="HFSCREENC">      0.00000000</i>
   <i type="int" name="NBANDSGWLOW">     0</i>
  </separator>
  <separator name="vdW DFT" >
   <i type="logical" name="LUSE_VDW"> F  </i>
   <i name="Zab_VDW">     -0.84910000</i>
   <i name="PARAM1">      0.12340000</i>
   <i name="PARAM2">      1.00000000</i>
   <i name="PARAM3">      0.00000000</i>
  </separator>
  <separator name="model GW" >
   <i type="int" name="MODEL_GW">     0</i>
   <i name="MODEL_EPS0">     82.23366212</i>
   <i name="MODEL_ALPHA">      1.00000000</i>
  </separator>
  <separator name="linear response parameters" >
   <i type="logical" name="LEPSILON"> F  </i>
   <i type="logical" name="LRPA"> F  </i>
   <i type="logical" name="LNABLA"> F  </i>
   <i type="logical" name="LVEL"> F  </i>
   <i type="int" name="KINTER">     0</i>
   <i name="CSHIFT">      0.10000000</i>
   <i name="OMEGAMAX">     -1.00000000</i>
   <i name="DEG_THRESHOLD">      0.00200000</i>
   <i name="RTIME">     -0.10000000</i>
   <i name="WPLASMAI">      0.00000000</i>
   <v name="DFIELD">      0.00000000      0.00000000      0.00000000</v>
   <v name="WPLASMA">      0.00000000      0.00000000      0.00000000      0.00000000      0.00000000      0.00000000      0.00000000      0.00000000      0.00000000</v>
  </separator>
  <separator name="orbital magnetization" >
   <i type="logical" name="NUCIND"> F  </i>
   <v name="MAGPOS">      0.00000000      0.00000000      0.00000000</v>
   <i type="logical" name="LNICSALL"> T  </i>
   <i type="logical" name="ORBITALMAG"> F  </i>
   <i type="logical" name="LMAGBLOCH"> F  </i>
   <i type="logical" name="LCHIMAG"> F  </i>
   <i type="logical" name="LGAUGE"> T  </i>
   <i type="int" name="MAGATOM">     0</i>
   <v name="MAGDIPOL">      0.00000000      0.00000000      0.00000000</v>
   <v name="AVECCONST">      0.00000000      0.00000000      0.00000000</v>
  </separator>
  <separator name="response functions" >
   <i type="logical" name="LADDER"> F  </i>
   <i type="logical" name="LRPAFORCE"> F  </i>
   <i type="logical" name="LFXC"> F  </i>
   <i type="logical" name="LHARTREE"> T  </i>
   <i type="int" name="IBSE">     0</i>
   <v type="int" name="KPOINT">    -1     0     0     0</v>
   <i type="logical" name="LTCTE"> F  </i>
   <i type="logical" name="LTETE"> F  </i>
   <i type="logical" name="LTRIPLET"> F  </i>
   <i type="logical" name="LFXCEPS"> F  </i>
   <i type="logical" name="LFXHEG"> F  </i>
   <i type="int" name="NATURALO">     2</i>
   <i type="logical" name="L2ORDER"> F  </i>
   <i type="logical" name="LMP2LT"> F  </i>
   <i type="logical" name="LUSEW"> F  </i>
   <i name="ENCUTGW">     -2.00000000</i>
   <i name="ENCUTGWSOFT">     -2.00000000</i>
   <i name="ENCUTLF">     -1.00000000</i>
   <i type="int" name="LMAXMP2">    -1</i>
   <i name="SCISSOR">      0.00000000</i>
   <i type="int" name="NOMEGA">     0</i>
   <i type="int" name="NOMEGAR">     0</i>
   <i type="int" name="NBANDSGW">    -1</i>
   <i type="int" name="NBANDSO">    -1</i>
   <i type="int" name="NBANDSV">    -1</i>
   <i type="int" name="NELM">   200</i>
   <i type="int" name="NELMHF">     1</i>
   <i type="int" name="DIM">     3</i>
   <i type="int" name="ANTIRES">     0</i>
   <i name="OMEGAMAX">    -30.00000000</i>
   <i name="OMEGAMIN">    -30.00000000</i>
   <i name="OMEGATL">   -200.00000000</i>
   <i type="int" name="OMEGAGRID">   140</i>
   <i name="CSHIFT">     -0.10000000</i>
   <i type="logical" name="SELFENERGY"> F  </i>
   <i type="logical" name="LSPECTRAL"> F  </i>
   <i type="logical" name="LSPECTRALGW"> F  </i>
   <i type="logical" name="LSINGLES"> F  </i>
   <i type="logical" name="LFERMIGW"> F  </i>
   <i type="logical" name="ODDONLYGW"> F  </i>
   <i type="logical" name="EVENONLYGW"> F  </i>
   <i type="int" name="NKREDLFX">     1</i>
   <i type="int" name="NKREDLFY">     1</i>
   <i type="int" name="NKREDLFZ">     1</i>
   <i type="int" name="MAXMEM">  2800</i>
   <i type="int" name="TELESCOPE">     0</i>
   <i type="int" name="TAUPAR">     1</i>
   <i type="int" name="OMEGAPAR">    -1</i>
   <i name="LAMBDA">      1.00000000</i>
  </separator>
  <separator name="External order field" >
   <i name="OFIELD_KAPPA">      0.00000000</i>
   <v name="OFIELD_K">      0.00000000      0.00000000      0.00000000</v>
   <i name="OFIELD_Q6_NEAR">      0.00000000</i>
   <i name="OFIELD_Q6_FAR">      0.00000000</i>
   <i name="OFIELD_A">      0.00000000</i>
  </separator>
  <separator name="solvation model" >
   <i type="logical" name="LSOL"> F  </i>
  </separator>
 </parameters>
 <atominfo>
  <atoms>     108 </atoms>
  <types>       4 </types>
  <array name="atoms" >
   <dimension dim="1">ion</dimension>
   <field type="string">element</field>
   <field type="int">atomtype</field>
   <set>
    <rc><c>H </c><c>   1</c></rc>
    <rc><c>H </c><c>   1</c></rc>
    <rc><c>H </c><c>   1</c></rc>
    <rc><c>H </c><c>   1</c></rc>
    <rc><c>H </c><c>   1</c></rc>
    <rc><c>H </c><c>   1</c></rc>
    <rc><c>H </c><c>   1</c></rc>
    <rc><c>H </c><c>   1</c></rc>
    <rc><c>H </c><c>   1</c></rc>
    <rc><c>H </c><c>   1</c></rc>
    <rc><c>H </c><c>   1</c></rc>
    <rc><c>H </c><c>   1</c></rc>
    <rc><c>H </c><c>   1</c></rc>
    <rc><c>H </c><c>   1</c></rc>
    <rc><c>H </c><c>   1</c></rc>
    <rc><c>H </c><c>   1</c></rc>
    <rc><c>H </c><c>   1</c></rc>
    <rc><c>H </c><c>   1</c></rc>
    <rc><c>H </c><c>   1</c></rc>
    <rc><c>H </c><c>   1</c></rc>
    <rc><c>H </c><c>   1</c></rc>
    <rc><c>H </c><c>   1</c></rc>
    <rc><c>H </c><c>   1</c></rc>
    <rc><c>H </c><c>   1</c></rc>
    <rc><c>H </c><c>   1</c></rc>
    <rc><c>H </c><c>   1</c></rc>
    <rc><c>H </c><c>   1</c></rc>
    <rc><c>H </c><c>   1</c></rc>
    <rc><c>H </c><c>   1</c></rc>
    <rc><c>H </c><c>   1</c></rc>
    <rc><c>H </c><c>   1</c></rc>
    <rc><c>H </c><c>   1</c></rc>
    <rc><c>H </c><c>   1</c></rc>
    <rc><c>N </c><c>   2</c></rc>
    <rc><c>N </c><c>   2</c></rc>
    <rc><c>N </c><c>   2</c></rc>
    <rc><c>N </c><c>   2</c></rc>
    <rc><c>N </c><c>   2</c></rc>
    <rc><c>N </c><c>   2</c></rc>
    <rc><c>N </c><c>   2</c></rc>
    <rc><c>N </c><c>   2</c></rc>
    <rc><c>N </c><c>   2</c></rc>
    <rc><c>N </c><c>   2</c></rc>
    <rc><c>N </c><c>   2</c></rc>
    <rc><c>N </c><c>   2</c></rc>
    <rc><c>N </c><c>   2</c></rc>
    <rc><c>N </c><c>   2</c></rc>
    <rc><c>N </c><c>   2</c></rc>
    <rc><c>O </c><c>   3</c></rc>
    <rc><c>O </c><c>   3</c></rc>
    <rc><c>O </c><c>   3</c></rc>
    <rc><c>C </c><c>   4</c></rc>
    <rc><c>C </c><c>   4</c></rc>
    <rc><c>C </c><c>   4</c></rc>
    <rc><c>C </c><c>   4</c></rc>
    <rc><c>C </c><c>   4</c></rc>
    <rc><c>C </c><c>   4</c></rc>
    <rc><c>C </c><c>   4</c></rc>
    <rc><c>C </c><c>   4</c></rc>
    <rc><c>C </c><c>   4</c></rc>
    <rc><c>C </c><c>   4</c></rc>
    <rc><c>C </c><c>   4</c></rc>
    <rc><c>C </c><c>   4</c></rc>
    <rc><c>C </c><c>   4</c></rc>
    <rc><c>C </c><c>   4</c></rc>
    <rc><c>C </c><c>   4</c></rc>
    <rc><c>C </c><c>   4</c></rc>
    <rc><c>C </c><c>   4</c></rc>
    <rc><c>C </c><c>   4</c></rc>
    <rc><c>C </c><c>   4</c></rc>
    <rc><c>C </c><c>   4</c></rc>
    <rc><c>C </c><c>   4</c></rc>
    <rc><c>C </c><c>   4</c></rc>
    <rc><c>C </c><c>   4</c></rc>
    <rc><c>C </c><c>   4</c></rc>
    <rc><c>C </c><c>   4</c></rc>
    <rc><c>C </c><c>   4</c></rc>
    <rc><c>C </c><c>   4</c></rc>
    <rc><c>C </c><c>   4</c></rc>
    <rc><c>C </c><c>   4</c></rc>
    <rc><c>C </c><c>   4</c></rc>
    <rc><c>C </c><c>   4</c></rc>
    <rc><c>C </c><c>   4</c></rc>
    <rc><c>C </c><c>   4</c></rc>
    <rc><c>C </c><c>   4</c></rc>
    <rc><c>C </c><c>   4</c></rc>
    <rc><c>C </c><c>   4</c></rc>
    <rc><c>C </c><c>   4</c></rc>
    <rc><c>C </c><c>   4</c></rc>
    <rc><c>C </c><c>   4</c></rc>
    <rc><c>C </c><c>   4</c></rc>
    <rc><c>C </c><c>   4</c></rc>
    <rc><c>C </c><c>   4</c></rc>
    <rc><c>C </c><c>   4</c></rc>
    <rc><c>C </c><c>   4</c></rc>
    <rc><c>C </c><c>   4</c></rc>
    <rc><c>C </c><c>   4</c></rc>
    <rc><c>C </c><c>   4</c></rc>
    <rc><c>C </c><c>   4</c></rc>
    <rc><c>C </c><c>   4</c></rc>
    <rc><c>C </c><c>   4</c></rc>
    <rc><c>C </c><c>   4</c></rc>
    <rc><c>C </c><c>   4</c></rc>
    <rc><c>C </c><c>   4</c></rc>
    <rc><c>C </c><c>   4</c></rc>
    <rc><c>C </c><c>   4</c></rc>
    <rc><c>C </c><c>   4</c></rc>
    <rc><c>C </c><c>   4</c></rc>
   </set>
  </array>
  <array name="atomtypes" >
   <dimension dim="1">type</dimension>
   <field type="int">atomspertype</field>
   <field type="string">element</field>
   <field>mass</field>
   <field>valence</field>
   <field type="string">pseudopotential</field>
   <set>
    <rc><c>  33</c><c>H </c><c>      1.00000000</c><c>      1.00000000</c><c>  PAW_PBE H 15Jun2001                   </c></rc>
    <rc><c>  15</c><c>N </c><c>     14.00100000</c><c>      5.00000000</c><c>  PAW_PBE N 08Apr2002                   </c></rc>
    <rc><c>   3</c><c>O </c><c>     16.00000000</c><c>      6.00000000</c><c>  PAW_PBE O 08Apr2002                   </c></rc>
    <rc><c>  57</c><c>C </c><c>     12.01100000</c><c>      4.00000000</c><c>  PAW_PBE C 08Apr2002                   </c></rc>
   </set>
  </array>
 </atominfo>
 <structure name="initialpos" >
  <crystal>
   <varray name="basis" >
    <v>      29.26584742       0.00435002       0.00000000 </v>
    <v>     -14.62914169      25.28678945       0.00000000 </v>
    <v>       0.00000000       0.00000000      20.00000000 </v>
   </varray>
   <i name="volume">  14802.05918235 </i>
   <varray name="rec_basis" >
    <v>       0.03416658       0.01976636       0.00000000 </v>
    <v>      -0.00000588       0.03954294       0.00000000 </v>
    <v>       0.00000000       0.00000000       0.05000000 </v>
   </varray>
  </crystal>
  <varray name="positions" >
   <v>       0.50487936       0.62020070       0.53837582 </v>
   <v>       0.45969779       0.67361913       0.53153685 </v>
   <v>       0.36215741       0.48297532       0.47048227 </v>
   <v>       0.31698319       0.53566939       0.46755519 </v>
   <v>       0.21532961       0.54085010       0.53102617 </v>
   <v>       0.11673881       0.49556387       0.53705001 </v>
   <v>       0.22079603       0.68389932       0.46675027 </v>
   <v>       0.12299276       0.63862984       0.46885519 </v>
   <v>       0.32758782       0.78577784       0.53066308 </v>
   <v>       0.38110102       0.88451417       0.53696647 </v>
   <v>       0.51777177       0.87836620       0.46902664 </v>
   <v>       0.46501078       0.78035467       0.46678182 </v>
   <v>       0.48466847       0.36386121       0.48307987 </v>
   <v>       0.53625968       0.31674639       0.48093683 </v>
   <v>       0.62782876       0.51045685       0.52380705 </v>
   <v>       0.67885098       0.46355918       0.51900733 </v>
   <v>       0.78297950       0.46637372       0.48087653 </v>
   <v>       0.88171424       0.51746344       0.48220509 </v>
   <v>       0.78580555       0.32278648       0.51690097 </v>
   <v>       0.88373783       0.37329770       0.52104366 </v>
   <v>       0.68501307       0.21918969       0.48001635 </v>
   <v>       0.63744609       0.12031553       0.48196251 </v>
   <v>       0.49158987       0.11794989       0.52272307 </v>
   <v>       0.53894670       0.21600121       0.51826618 </v>
   <v>       0.54767102       0.07418865       0.65660627 </v>
   <v>       0.50254580       0.08814609       0.69528645 </v>
   <v>       0.52827380       0.45248721       0.65719802 </v>
   <v>       0.58678367       0.49808720       0.69678386 </v>
   <v>       0.92664469       0.47400601       0.65492135 </v>
   <v>       0.91238786       0.41512881       0.69474588 </v>
   <v>       0.54025715       0.95918223       0.42715221 </v>
   <v>       0.42034997       0.46073328       0.42878033 </v>
   <v>       0.04280193       0.58053108       0.42654913 </v>
   <v>       0.38851440       0.69210278       0.49691204 </v>
   <v>       0.30888712       0.69564692       0.49726863 </v>
   <v>       0.30532666       0.61235798       0.49750165 </v>
   <v>       0.61379437       0.30600757       0.49911610 </v>
   <v>       0.69615712       0.30809488       0.49838947 </v>
   <v>       0.69417928       0.38861865       0.49986836 </v>
   <v>       0.46781428       0.97028539       0.55072436 </v>
   <v>       0.51134104       0.07031875       0.65800629 </v>
   <v>       0.50377504       0.53325575       0.55257440 </v>
   <v>       0.56016598       0.48928849       0.65951381 </v>
   <v>       0.03090457       0.49680358       0.55050559 </v>
   <v>       0.93058214       0.44155066       0.65732331 </v>
   <v>       0.55128784       0.03009750       0.46362192 </v>
   <v>       0.48027828       0.44995261       0.46510552 </v>
   <v>       0.97180088       0.52089070       0.46291844 </v>
   <v>       0.43201433       0.04282635       0.60643170 </v>
   <v>       0.61132245       0.56954204       0.60933630 </v>
   <v>       0.95798973       0.38895193       0.60742089 </v>
   <v>       0.35844118       0.63906818       0.49742750 </v>
   <v>       0.36184985       0.71858922       0.49712254 </v>
   <v>       0.28242760       0.64242421       0.49740330 </v>
   <v>       0.39297285       0.77700230       0.49809676 </v>
   <v>       0.44673531       0.80354219       0.48088891 </v>
   <v>       0.47598681       0.85848397       0.48212366 </v>
   <v>       0.45259372       0.88818208       0.50235073 </v>
   <v>       0.39892486       0.86141564       0.52048277 </v>
   <v>       0.36930993       0.80660770       0.51741435 </v>
   <v>       0.38563390       0.60795549       0.49886660 </v>
   <v>       0.43883717       0.63180088       0.51840106 </v>
   <v>       0.46399004       0.60223953       0.52181062 </v>
   <v>       0.43707360       0.54843823       0.50386780 </v>
   <v>       0.38404216       0.52486072       0.48345646 </v>
   <v>       0.35839832       0.55406790       0.48184690 </v>
   <v>       0.22411760       0.61510821       0.49829682 </v>
   <v>       0.19454243       0.56176926       0.51764092 </v>
   <v>       0.13982106       0.53654380       0.52056271 </v>
   <v>       0.11314672       0.56351387       0.50226987 </v>
   <v>       0.14282235       0.61668222       0.48203923 </v>
   <v>       0.19765703       0.64238783       0.48091206 </v>
   <v>       0.64114202       0.35919495       0.49961995 </v>
   <v>       0.64307279       0.28226152       0.49880901 </v>
   <v>       0.71988455       0.36120535       0.49902789 </v>
   <v>       0.61503180       0.22379436       0.49975662 </v>
   <v>       0.56037150       0.19476212       0.51135825 </v>
   <v>       0.53409687       0.13984511       0.51412542 </v>
   <v>       0.56179288       0.11250845       0.50443697 </v>
   <v>       0.61627811       0.14160749       0.49094632 </v>
   <v>       0.64268255       0.19652147       0.48940754 </v>
   <v>       0.61068908       0.38711301       0.50071568 </v>
   <v>       0.55577732       0.35913304       0.49038693 </v>
   <v>       0.52711281       0.38527841       0.49204093 </v>
   <v>       0.55233258       0.43982590       0.50565047 </v>
   <v>       0.60736537       0.46787914       0.51520006 </v>
   <v>       0.63617957       0.44186927       0.51226558 </v>
   <v>       0.77824332       0.39147986       0.49961663 </v>
   <v>       0.80555185       0.44652310       0.48965716 </v>
   <v>       0.86037243       0.47489826       0.49085847 </v>
   <v>       0.88928701       0.44922356       0.50370459 </v>
   <v>       0.86192784       0.39406456       0.51290335 </v>
   <v>       0.80710317       0.36555062       0.51037764 </v>
   <v>       0.53483711       0.05417990       0.50716895 </v>
   <v>       0.48297101       0.94645041       0.50546035 </v>
   <v>       0.49371160       0.02305829       0.55273152 </v>
   <v>       0.47574160       0.04637725       0.60780103 </v>
   <v>       0.52077768       0.46647365       0.50868058 </v>
   <v>       0.46490166       0.51810774       0.50717803 </v>
   <v>       0.53061080       0.50740733       0.55452977 </v>
   <v>       0.57160882       0.52533620       0.60988404 </v>
   <v>       0.94748895       0.48041207       0.50652211 </v>
   <v>       0.05498893       0.53573962       0.50516814 </v>
   <v>       0.97824411       0.47023321       0.55238279 </v>
   <v>       0.95458906       0.42929120       0.60782812 </v>
   <v>       0.52625682       0.97750430       0.46324737 </v>
   <v>       0.45266283       0.47482318       0.46486959 </v>
   <v>       0.02429859       0.54822475       0.46269972 </v>
  </varray>
 </structure>
 <calculation>
  <scstep>
   <time name="dav">  604.59  611.62</time>
   <time name="total">  604.85  611.89</time>
   <energy>
    <i name="alphaZ">     39.31004328 </i>
    <i name="ewald">  43455.52440794 </i>
    <i name="hartreedc"> -54980.48298856 </i>
    <i name="XCdc">   1261.80297455 </i>
    <i name="pawpsdc">  33367.55172465 </i>
    <i name="pawaedc"> -33434.28989086 </i>
    <i name="eentropy">     -0.00000000 </i>
    <i name="bandstr">  -4551.47574569 </i>
    <i name="atom">  14064.60426700 </i>
    <i name="e_fr_energy">   -777.45520770 </i>
    <i name="e_wo_entrp">   -777.45520770 </i>
    <i name="e_0_energy">   -777.45520770 </i>
   </energy>
  </scstep>
  <scstep>
   <time name="dav">  671.53  679.57</time>
   <time name="total">  671.53  679.57</time>
   <energy>
    <i name="e_fr_energy">   -777.92409606 </i>
    <i name="e_wo_entrp">   -777.92409606 </i>
    <i name="e_0_energy">   -777.92409606 </i>
   </energy>
  </scstep>
  <scstep>
   <time name="dav">  734.56  743.22</time>
   <time name="total">  734.56  743.22</time>
   <energy>
    <i name="e_fr_energy">   -777.93673851 </i>
    <i name="e_wo_entrp">   -777.93673851 </i>
    <i name="e_0_energy">   -777.93673851 </i>
   </energy>
  </scstep>
  <scstep>
   <time name="dav">  666.36  674.19</time>
   <time name="total">  666.37  674.19</time>
   <energy>
    <i name="e_fr_energy">   -777.93696900 </i>
    <i name="e_wo_entrp">   -777.93696900 </i>
    <i name="e_0_energy">   -777.93696900 </i>
   </energy>
  </scstep>
  <scstep>
   <time name="dav">  625.20  632.53</time>
   <time name="total">  625.20  632.53</time>
   <energy>
    <i name="alphaZ">     39.31004328 </i>
    <i name="ewald">  43455.52440794 </i>
    <i name="hartreedc"> -54980.48298856 </i>
    <i name="XCdc">   1261.80297455 </i>
    <i name="pawpsdc">  33367.55172465 </i>
    <i name="pawaedc"> -33434.28989086 </i>
    <i name="eentropy">     -0.00000000 </i>
    <i name="bandstr">  -4551.95751648 </i>
    <i name="atom">  14064.60426700 </i>
    <i name="e_fr_energy">   -777.93697849 </i>
    <i name="e_wo_entrp">   -777.93697849 </i>
    <i name="e_0_energy">   -777.93697849 </i>
   </energy>
  </scstep>
  <structure>
   <crystal>
    <varray name="basis" >
     <v>      29.26584742       0.00435002       0.00000000 </v>
     <v>     -14.62914169      25.28678945       0.00000000 </v>
     <v>       0.00000000       0.00000000      20.00000000 </v>
    </varray>
    <i name="volume">  14802.05918235 </i>
    <varray name="rec_basis" >
     <v>       0.03416658       0.01976636       0.00000000 </v>
     <v>      -0.00000588       0.03954294       0.00000000 </v>
     <v>       0.00000000       0.00000000       0.05000000 </v>
    </varray>
   </crystal>
   <varray name="positions" >
    <v>       0.50487936       0.62020070       0.53837582 </v>
    <v>       0.45969779       0.67361913       0.53153685 </v>
    <v>       0.36215741       0.48297532       0.47048227 </v>
    <v>       0.31698319       0.53566939       0.46755519 </v>
    <v>       0.21532961       0.54085010       0.53102617 </v>
    <v>       0.11673881       0.49556387       0.53705001 </v>
    <v>       0.22079603       0.68389932       0.46675027 </v>
    <v>       0.12299276       0.63862984       0.46885519 </v>
    <v>       0.32758782       0.78577784       0.53066308 </v>
    <v>       0.38110102       0.88451417       0.53696647 </v>
    <v>       0.51777177       0.87836620       0.46902664 </v>
    <v>       0.46501078       0.78035467       0.46678182 </v>
    <v>       0.48466847       0.36386121       0.48307987 </v>
    <v>       0.53625968       0.31674639       0.48093683 </v>
    <v>       0.62782876       0.51045685       0.52380705 </v>
    <v>       0.67885098       0.46355918       0.51900733 </v>
    <v>       0.78297950       0.46637372       0.48087653 </v>
    <v>       0.88171424       0.51746344       0.48220509 </v>
    <v>       0.78580555       0.32278648       0.51690097 </v>
    <v>       0.88373783       0.37329770       0.52104366 </v>
    <v>       0.68501307       0.21918969       0.48001635 </v>
    <v>       0.63744609       0.12031553       0.48196251 </v>
    <v>       0.49158987       0.11794989       0.52272307 </v>
    <v>       0.53894670       0.21600121       0.51826618 </v>
    <v>       0.54767102       0.07418865       0.65660627 </v>
    <v>       0.50254580       0.08814609       0.69528645 </v>
    <v>       0.52827380       0.45248721       0.65719802 </v>
    <v>       0.58678367       0.49808720       0.69678386 </v>
    <v>       0.92664469       0.47400601       0.65492135 </v>
    <v>       0.91238786       0.41512881       0.69474588 </v>
    <v>       0.54025715       0.95918223       0.42715221 </v>
    <v>       0.42034997       0.46073328       0.42878033 </v>
    <v>       0.04280193       0.58053108       0.42654913 </v>
    <v>       0.38851440       0.69210278       0.49691204 </v>
    <v>       0.30888712       0.69564692       0.49726863 </v>
    <v>       0.30532666       0.61235798       0.49750165 </v>
    <v>       0.61379437       0.30600757       0.49911610 </v>
    <v>       0.69615712       0.30809488       0.49838947 </v>
    <v>       0.69417928       0.38861865       0.49986836 </v>
    <v>       0.46781428       0.97028539       0.55072436 </v>
    <v>       0.51134104       0.07031875       0.65800629 </v>
    <v>       0.50377504       0.53325575       0.55257440 </v>
    <v>       0.56016598       0.48928849       0.65951381 </v>
    <v>       0.03090457       0.49680358       0.55050559 </v>
    <v>       0.93058214       0.44155066       0.65732331 </v>
    <v>       0.55128784       0.03009750       0.46362192 </v>
    <v>       0.48027828       0.44995261       0.46510552 </v>
    <v>       0.97180088       0.52089070       0.46291844 </v>
    <v>       0.43201433       0.04282635       0.60643170 </v>
    <v>       0.61132245       0.56954204       0.60933630 </v>
    <v>       0.95798973       0.38895193       0.60742089 </v>
    <v>       0.35844118       0.63906818       0.49742750 </v>
    <v>       0.36184985       0.71858922       0.49712254 </v>
    <v>       0.28242760       0.64242421       0.49740330 </v>
    <v>       0.39297285       0.77700230       0.49809676 </v>
    <v>       0.44673531       0.80354219       0.48088891 </v>
    <v>       0.47598681       0.85848397       0.48212366 </v>
    <v>       0.45259372       0.88818208       0.50235073 </v>
    <v>       0.39892486       0.86141564       0.52048277 </v>
    <v>       0.36930993       0.80660770       0.51741435 </v>
    <v>       0.38563390       0.60795549       0.49886660 </v>
    <v>       0.43883717       0.63180088       0.51840106 </v>
    <v>       0.46399004       0.60223953       0.52181062 </v>
    <v>       0.43707360       0.54843823       0.50386780 </v>
    <v>       0.38404216       0.52486072       0.48345646 </v>
    <v>       0.35839832       0.55406790       0.48184690 </v>
    <v>       0.22411760       0.61510821       0.49829682 </v>
    <v>       0.19454243       0.56176926       0.51764092 </v>
    <v>       0.13982106       0.53654380       0.52056271 </v>
    <v>       0.11314672       0.56351387       0.50226987 </v>
    <v>       0.14282235       0.61668222       0.48203923 </v>
    <v>       0.19765703       0.64238783       0.48091206 </v>
    <v>       0.64114202       0.35919495       0.49961995 </v>
    <v>       0.64307279       0.28226152       0.49880901 </v>
    <v>       0.71988455       0.36120535       0.49902789 </v>
    <v>       0.61503180       0.22379436       0.49975662 </v>
    <v>       0.56037150       0.19476212       0.51135825 </v>
    <v>       0.53409687       0.13984511       0.51412542 </v>
    <v>       0.56179288       0.11250845       0.50443697 </v>
    <v>       0.61627811       0.14160749       0.49094632 </v>
    <v>       0.64268255       0.19652147       0.48940754 </v>
    <v>       0.61068908       0.38711301       0.50071568 </v>
    <v>       0.55577732       0.35913304       0.49038693 </v>
    <v>       0.52711281       0.38527841       0.49204093 </v>
    <v>       0.55233258       0.43982590       0.50565047 </v>
    <v>       0.60736537       0.46787914       0.51520006 </v>
    <v>       0.63617957       0.44186927       0.51226558 </v>
    <v>       0.77824332       0.39147986       0.49961663 </v>
    <v>       0.80555185       0.44652310       0.48965716 </v>
    <v>       0.86037243       0.47489826       0.49085847 </v>
    <v>       0.88928701       0.44922356       0.50370459 </v>
    <v>       0.86192784       0.39406456       0.51290335 </v>
    <v>       0.80710317       0.36555062       0.51037764 </v>
    <v>       0.53483711       0.05417990       0.50716895 </v>
    <v>       0.48297101       0.94645041       0.50546035 </v>
    <v>       0.49371160       0.02305829       0.55273152 </v>
    <v>       0.47574160       0.04637725       0.60780103 </v>
    <v>       0.52077768       0.46647365       0.50868058 </v>
    <v>       0.46490166       0.51810774       0.50717803 </v>
    <v>       0.53061080       0.50740733       0.55452977 </v>
    <v>       0.57160882       0.52533620       0.60988404 </v>
    <v>       0.94748895       0.48041207       0.50652211 </v>
    <v>       0.05498893       0.53573962       0.50516814 </v>
    <v>       0.97824411       0.47023321       0.55238279 </v>
    <v>       0.95458906       0.42929120       0.60782812 </v>
    <v>       0.52625682       0.97750430       0.46324737 </v>
    <v>       0.45266283       0.47482318       0.46486959 </v>
    <v>       0.02429859       0.54822475       0.46269972 </v>
   </varray>
  </structure>
  <varray name="forces" >
   <v>       0.00107075       0.00141039      -0.00149411 </v>
   <v>       0.00029516       0.00040743      -0.00312000 </v>
   <v>       0.00019550      -0.00037732       0.00112578 </v>
   <v>       0.00085165      -0.00159410       0.00015841 </v>
   <v>       0.00131865      -0.00035708      -0.00069364 </v>
   <v>       0.00011947      -0.00239597      -0.00181076 </v>
   <v>       0.00103305       0.00060996       0.00176650 </v>
   <v>      -0.00083499       0.00014820       0.00028228 </v>
   <v>       0.00051941      -0.00000922      -0.00196619 </v>
   <v>       0.00090697      -0.00131590      -0.00177108 </v>
   <v>       0.00057613       0.00025275       0.00039319 </v>
   <v>       0.00142875       0.00105358      -0.00053049 </v>
   <v>      -0.00395870      -0.00143400       0.00224490 </v>
   <v>      -0.00077737       0.00003460       0.00218462 </v>
   <v>       0.00044163       0.00165796       0.00221990 </v>
   <v>      -0.00148211      -0.00012466       0.00153705 </v>
   <v>       0.00068807      -0.00092530       0.00038389 </v>
   <v>       0.00061658       0.00099411       0.00042703 </v>
   <v>      -0.00110167      -0.00087361      -0.00085836 </v>
   <v>       0.00080838      -0.00099972      -0.00051564 </v>
   <v>       0.00117713       0.00060672       0.00056881 </v>
   <v>      -0.00211672       0.00110391       0.00125196 </v>
   <v>      -0.00273312       0.00053764      -0.00038555 </v>
   <v>      -0.00102426       0.00051905      -0.00123317 </v>
   <v>       0.00397268      -0.00255037       0.00047148 </v>
   <v>      -0.00663553       0.00149010       0.00561063 </v>
   <v>       0.00098803       0.00640489       0.00413171 </v>
   <v>       0.00021888       0.00260906       0.00115924 </v>
   <v>       0.00230766      -0.00034817       0.00110701 </v>
   <v>       0.00019732      -0.00189058       0.00192667 </v>
   <v>      -0.00248067       0.00189550       0.00127863 </v>
   <v>      -0.00022178       0.00319014       0.00155418 </v>
   <v>       0.00012687      -0.00141489       0.00151284 </v>
   <v>      -0.00298151      -0.00062460       0.00219688 </v>
   <v>       0.00111513       0.00310051      -0.00074646 </v>
   <v>       0.00256973      -0.00413352       0.00148751 </v>
   <v>      -0.00184448       0.00304605      -0.00315324 </v>
   <v>       0.00100542       0.00142877      -0.00242740 </v>
   <v>      -0.00420812       0.00259683      -0.00094848 </v>
   <v>       0.00228496      -0.00146090      -0.00131487 </v>
   <v>       0.00674811      -0.00379423       0.00233543 </v>
   <v>      -0.00311177      -0.00113038      -0.00292438 </v>
   <v>      -0.00288851       0.00190079      -0.00142856 </v>
   <v>       0.00241472      -0.00042206       0.00174994 </v>
   <v>       0.00155432       0.00069346       0.00114131 </v>
   <v>       0.00116219       0.00329277       0.00102480 </v>
   <v>      -0.00413825      -0.00072817       0.00263112 </v>
   <v>       0.00239700       0.00208558      -0.00083991 </v>
   <v>      -0.00652832      -0.00270305      -0.00541766 </v>
   <v>       0.00005284      -0.00588518      -0.00055044 </v>
   <v>      -0.00075216      -0.00052086      -0.00107801 </v>
   <v>      -0.00249491       0.00113247       0.00319916 </v>
   <v>       0.00285021       0.00021676       0.00003241 </v>
   <v>      -0.00246792      -0.00008957      -0.00334725 </v>
   <v>       0.00079624       0.00018161      -0.00006103 </v>
   <v>      -0.00104600      -0.00148445       0.00087110 </v>
   <v>       0.00177803       0.00058141       0.00031193 </v>
   <v>       0.00269574      -0.00003043      -0.00077986 </v>
   <v>       0.00062057       0.00133572      -0.00035808 </v>
   <v>      -0.00173132       0.00004396       0.00011131 </v>
   <v>      -0.00051432       0.00227163      -0.00209524 </v>
   <v>      -0.00032135      -0.00058330      -0.00092308 </v>
   <v>       0.00152394      -0.00344748       0.00091223 </v>
   <v>       0.00314347       0.00249428      -0.00157841 </v>
   <v>      -0.00372906      -0.00223617       0.00148740 </v>
   <v>      -0.00075035      -0.00207196       0.00050933 </v>
   <v>       0.00032925       0.00367680       0.00115143 </v>
   <v>      -0.00155398      -0.00111742       0.00055996 </v>
   <v>      -0.00006724       0.00036246      -0.00115901 </v>
   <v>      -0.00223197       0.00304299      -0.00047745 </v>
   <v>      -0.00019924      -0.00133880       0.00030773 </v>
   <v>       0.00183753      -0.00104617       0.00259553 </v>
   <v>      -0.00078814       0.00178434      -0.00050580 </v>
   <v>       0.00244344      -0.00057687      -0.00154690 </v>
   <v>       0.00242064      -0.00419811       0.00066909 </v>
   <v>      -0.00244922      -0.00043010      -0.00106858 </v>
   <v>      -0.00143142       0.00028058      -0.00351883 </v>
   <v>       0.00140608      -0.00293152      -0.00155815 </v>
   <v>      -0.00101343      -0.00163144       0.00008621 </v>
   <v>       0.00195078      -0.00035485      -0.00131926 </v>
   <v>      -0.00098377       0.00086623      -0.00207420 </v>
   <v>       0.00135123       0.00021478      -0.00020247 </v>
   <v>       0.00320893       0.00185224      -0.00031054 </v>
   <v>       0.00096643       0.00163760      -0.00060412 </v>
   <v>       0.00017611       0.00131079       0.00238945 </v>
   <v>      -0.00026005      -0.00037858      -0.00114665 </v>
   <v>       0.00224924      -0.00354975      -0.00145525 </v>
   <v>      -0.00310090      -0.00063276       0.00002539 </v>
   <v>      -0.00076999       0.00045276       0.00028312 </v>
   <v>      -0.00154633      -0.00080618       0.00034214 </v>
   <v>      -0.00170711       0.00250960      -0.00194468 </v>
   <v>       0.00011121      -0.00068576       0.00061015 </v>
   <v>      -0.00075574       0.00153340      -0.00056426 </v>
   <v>      -0.00143371       0.00085957       0.00010323 </v>
   <v>      -0.00094083       0.00132253       0.00036545 </v>
   <v>      -0.00296007       0.00250441      -0.00154544 </v>
   <v>       0.00358257      -0.00078599       0.00277498 </v>
   <v>       0.00254803       0.00011842       0.00106346 </v>
   <v>      -0.00130346      -0.00332600       0.00161088 </v>
   <v>       0.00273156      -0.00031188       0.00193547 </v>
   <v>       0.00361221       0.00495339       0.00188533 </v>
   <v>      -0.00231148       0.00007153      -0.00179390 </v>
   <v>       0.00158694       0.00284886      -0.00176256 </v>
   <v>      -0.00115878      -0.00355208       0.00010917 </v>
   <v>       0.00398036      -0.00412772       0.00118026 </v>
   <v>       0.00209438      -0.00468074      -0.00239030 </v>
   <v>      -0.00039566       0.00083786      -0.00124270 </v>
   <v>      -0.00092044       0.00005018      -0.00080465 </v>
  </varray>
  <varray name="stress" >
   <v>      -0.00045776      -0.00091114       0.00375264 </v>
   <v>      -0.00091114      -0.00481990      -0.00033321 </v>
   <v>       0.00375264      -0.00033321      -0.15371017 </v>
  </varray>
  <energy>
   <i name="e_fr_energy">   -780.08566194 </i>
   <i name="e_wo_entrp">   -780.08566194 </i>
   <i name="e_0_energy">     -0.00000000 </i>
  </energy>
  <time name="totalsc"> 3996.72 4045.82</time>
  <eigenvalues>
   <array>
    <dimension dim="1">band</dimension>
    <dimension dim="2">kpoint</dimension>
    <dimension dim="3">spin</dimension>
    <field>eigene</field>
    <field>occ</field>
    <set>
     <set comment="spin 1">
      <set comment="kpoint 1">
       <r>  -25.8567    1.0000 </r>
       <r>  -25.8509    1.0000 </r>
       <r>  -25.8490    1.0000 </r>
       <r>  -25.3758    1.0000 </r>
       <r>  -25.3410    1.0000 </r>
       <r>  -24.5895    1.0000 </r>
       <r>  -24.5855    1.0000 </r>
       <r>  -24.5849    1.0000 </r>
       <r>  -22.7699    1.0000 </r>
       <r>  -22.7690    1.0000 </r>
       <r>  -22.7664    1.0000 </r>
       <r>  -22.6580    1.0000 </r>
       <r>  -22.6534    1.0000 </r>
       <r>  -22.6516    1.0000 </r>
       <r>  -22.4560    1.0000 </r>
       <r>  -22.4541    1.0000 </r>
       <r>  -22.4241    1.0000 </r>
       <r>  -22.4214    1.0000 </r>
       <r>  -21.4141    1.0000 </r>
       <r>  -21.3542    1.0000 </r>
       <r>  -21.3524    1.0000 </r>
       <r>  -21.3506    1.0000 </r>
       <r>  -21.2836    1.0000 </r>
       <r>  -21.2823    1.0000 </r>
       <r>  -20.0332    1.0000 </r>
       <r>  -20.0315    1.0000 </r>
       <r>  -20.0108    1.0000 </r>
       <r>  -19.2839    1.0000 </r>
       <r>  -19.2838    1.0000 </r>
       <r>  -19.1221    1.0000 </r>
       <r>  -18.6028    1.0000 </r>
       <r>  -18.6005    1.0000 </r>
       <r>  -18.5101    1.0000 </r>
       <r>  -18.4918    1.0000 </r>
       <r>  -18.4893    1.0000 </r>
       <r>  -18.4785    1.0000 </r>
       <r>  -18.3806    1.0000 </r>
       <r>  -18.3793    1.0000 </r>
       <r>  -18.2087    1.0000 </r>
       <r>  -17.3235    1.0000 </r>
       <r>  -17.3229    1.0000 </r>
       <r>  -16.9370    1.0000 </r>
       <r>  -16.9353    1.0000 </r>
       <r>  -16.9261    1.0000 </r>
       <r>  -16.6503    1.0000 </r>
       <r>  -16.4984    1.0000 </r>
       <r>  -16.4972    1.0000 </r>
       <r>  -15.7561    1.0000 </r>
       <r>  -15.7554    1.0000 </r>
       <r>  -15.4000    1.0000 </r>
       <r>  -15.2436    1.0000 </r>
       <r>  -15.1365    1.0000 </r>
       <r>  -15.0924    1.0000 </r>
       <r>  -15.0905    1.0000 </r>
       <r>  -14.9551    1.0000 </r>
       <r>  -14.9529    1.0000 </r>
       <r>  -14.8035    1.0000 </r>
       <r>  -14.5767    1.0000 </r>
       <r>  -14.5659    1.0000 </r>
       <r>  -14.5654    1.0000 </r>
       <r>  -14.2696    1.0000 </r>
       <r>  -14.2687    1.0000 </r>
       <r>  -14.1138    1.0000 </r>
       <r>  -14.1129    1.0000 </r>
       <r>  -13.6109    1.0000 </r>
       <r>  -13.5820    1.0000 </r>
       <r>  -13.5780    1.0000 </r>
       <r>  -13.4838    1.0000 </r>
       <r>  -13.2801    1.0000 </r>
       <r>  -13.2435    1.0000 </r>
       <r>  -13.2150    1.0000 </r>
       <r>  -13.0553    1.0000 </r>
       <r>  -13.0530    1.0000 </r>
       <r>  -12.8932    1.0000 </r>
       <r>  -12.8915    1.0000 </r>
       <r>  -12.8085    1.0000 </r>
       <r>  -12.6131    1.0000 </r>
       <r>  -12.6120    1.0000 </r>
       <r>  -12.5443    1.0000 </r>
       <r>  -12.2010    1.0000 </r>
       <r>  -11.7957    1.0000 </r>
       <r>  -11.7943    1.0000 </r>
       <r>  -11.5610    1.0000 </r>
       <r>  -11.5597    1.0000 </r>
       <r>  -11.4165    1.0000 </r>
       <r>  -11.2648    1.0000 </r>
       <r>  -11.2439    1.0000 </r>
       <r>  -11.1739    1.0000 </r>
       <r>  -11.1722    1.0000 </r>
       <r>  -11.0193    1.0000 </r>
       <r>  -11.0177    1.0000 </r>
       <r>  -10.9980    1.0000 </r>
       <r>  -10.9254    1.0000 </r>
       <r>  -10.9068    1.0000 </r>
       <r>  -10.9061    1.0000 </r>
       <r>  -10.8321    1.0000 </r>
       <r>  -10.8306    1.0000 </r>
       <r>  -10.7231    1.0000 </r>
       <r>  -10.6616    1.0000 </r>
       <r>  -10.5262    1.0000 </r>
       <r>  -10.5253    1.0000 </r>
       <r>  -10.3982    1.0000 </r>
       <r>  -10.2490    1.0000 </r>
       <r>  -10.2468    1.0000 </r>
       <r>  -10.2450    1.0000 </r>
       <r>  -10.1835    1.0000 </r>
       <r>  -10.1823    1.0000 </r>
       <r>  -10.1315    1.0000 </r>
       <r>  -10.0823    1.0000 </r>
       <r>  -10.0805    1.0000 </r>
       <r>  -10.0509    1.0000 </r>
       <r>   -9.9127    1.0000 </r>
       <r>   -9.9107    1.0000 </r>
       <r>   -9.7933    1.0000 </r>
       <r>   -9.7429    1.0000 </r>
       <r>   -9.7413    1.0000 </r>
       <r>   -9.7166    1.0000 </r>
       <r>   -9.6244    1.0000 </r>
       <r>   -9.6240    1.0000 </r>
       <r>   -9.4899    1.0000 </r>
       <r>   -9.4874    1.0000 </r>
       <r>   -9.3796    1.0000 </r>
       <r>   -9.3773    1.0000 </r>
       <r>   -9.2330    1.0000 </r>
       <r>   -8.9771    1.0000 </r>
       <r>   -8.8968    1.0000 </r>
       <r>   -8.7548    1.0000 </r>
       <r>   -8.6282    1.0000 </r>
       <r>   -8.6026    1.0000 </r>
       <r>   -8.5758    1.0000 </r>
       <r>   -8.5755    1.0000 </r>
       <r>   -8.5440    1.0000 </r>
       <r>   -8.5418    1.0000 </r>
       <r>   -8.5236    1.0000 </r>
       <r>   -8.5192    1.0000 </r>
       <r>   -8.2370    1.0000 </r>
       <r>   -8.1994    1.0000 </r>
       <r>   -8.1978    1.0000 </r>
       <r>   -8.1694    1.0000 </r>
       <r>   -8.1671    1.0000 </r>
       <r>   -8.1169    1.0000 </r>
       <r>   -8.1149    1.0000 </r>
       <r>   -8.1055    1.0000 </r>
       <r>   -8.0757    1.0000 </r>
       <r>   -8.0372    1.0000 </r>
       <r>   -8.0361    1.0000 </r>
       <r>   -7.3770    1.0000 </r>
       <r>   -7.2004    1.0000 </r>
       <r>   -7.1998    1.0000 </r>
       <r>   -7.1118    1.0000 </r>
       <r>   -7.0819    1.0000 </r>
       <r>   -7.0807    1.0000 </r>
       <r>   -6.5755    1.0000 </r>
       <r>   -6.5657    1.0000 </r>
       <r>   -6.5624    1.0000 </r>
       <r>   -6.3933    1.0000 </r>
       <r>   -6.3920    1.0000 </r>
       <r>   -6.3854    1.0000 </r>
       <r>   -6.3738    1.0000 </r>
       <r>   -6.3722    1.0000 </r>
       <r>   -6.3492    1.0000 </r>
       <r>   -6.3218    1.0000 </r>
       <r>   -6.2158    1.0000 </r>
       <r>   -6.2141    1.0000 </r>
       <r>   -6.1382    1.0000 </r>
       <r>   -6.1326    1.0000 </r>
       <r>   -6.1291    1.0000 </r>
       <r>   -5.9417    1.0000 </r>
       <r>   -5.9330    1.0000 </r>
       <r>   -5.9050    1.0000 </r>
       <r>   -5.9028    1.0000 </r>
       <r>   -5.7287    1.0000 </r>
       <r>   -5.7123    1.0000 </r>
       <r>   -5.7105    1.0000 </r>
       <r>   -5.4103    1.0000 </r>
       <r>   -5.4076    1.0000 </r>
       <r>   -5.4045    1.0000 </r>
       <r>   -3.1327    0.0000 </r>
       <r>   -3.1298    0.0000 </r>
       <r>   -2.7104    0.0000 </r>
       <r>   -2.6773    0.0000 </r>
       <r>   -2.6772    0.0000 </r>
       <r>   -2.3542    0.0000 </r>
       <r>   -2.3529    0.0000 </r>
       <r>   -2.2786    0.0000 </r>
       <r>   -1.7293    0.0000 </r>
       <r>   -1.7281    0.0000 </r>
       <r>   -1.5721    0.0000 </r>
       <r>   -1.2692    0.0000 </r>
       <r>   -1.2591    0.0000 </r>
       <r>   -1.2568    0.0000 </r>
       <r>   -1.1839    0.0000 </r>
       <r>   -1.1520    0.0000 </r>
       <r>   -1.1509    0.0000 </r>
       <r>   -0.8225    0.0000 </r>
       <r>   -0.6434    0.0000 </r>
       <r>   -0.6367    0.0000 </r>
       <r>   -0.5548    0.0000 </r>
       <r>   -0.4609    0.0000 </r>
       <r>   -0.4583    0.0000 </r>
       <r>   -0.4189    0.0000 </r>
       <r>   -0.3112    0.0000 </r>
       <r>   -0.3105    0.0000 </r>
       <r>   -0.2262    0.0000 </r>
       <r>   -0.0392    0.0000 </r>
       <r>   -0.0385    0.0000 </r>
       <r>    0.0216    0.0000 </r>
       <r>    0.1703    0.0000 </r>
       <r>    0.1722    0.0000 </r>
       <r>    0.2039    0.0000 </r>
       <r>    0.2353    0.0000 </r>
       <r>    0.2354    0.0000 </r>
       <r>    0.4020    0.0000 </r>
       <r>    0.4051    0.0000 </r>
       <r>    0.4094    0.0000 </r>
       <r>    0.4708    0.0000 </r>
       <r>    0.5174    0.0000 </r>
       <r>    0.5187    0.0000 </r>
       <r>    0.5203    0.0000 </r>
       <r>    0.5809    0.0000 </r>
       <r>    0.6142    0.0000 </r>
       <r>    0.6151    0.0000 </r>
       <r>    0.6208    0.0000 </r>
       <r>    0.6992    0.0000 </r>
       <r>    0.7170    0.0000 </r>
       <r>    0.7240    0.0000 </r>
       <r>    0.7867    0.0000 </r>
       <r>    0.7990    0.0000 </r>
       <r>    0.8041    0.0000 </r>
       <r>    0.8202    0.0000 </r>
       <r>    0.8221    0.0000 </r>
       <r>    0.8616    0.0000 </r>
       <r>    0.8862    0.0000 </r>
       <r>    0.9266    0.0000 </r>
       <r>    0.9342    0.0000 </r>
       <r>    0.9359    0.0000 </r>
       <r>    0.9740    0.0000 </r>
       <r>    1.0277    0.0000 </r>
       <r>    1.0315    0.0000 </r>
       <r>    1.0663    0.0000 </r>
      </set>
      <set comment="kpoint 2">
       <r>  -25.8567    1.0000 </r>
       <r>  -25.8509    1.0000 </r>
       <r>  -25.8490    1.0000 </r>
       <r>  -25.3758    1.0000 </r>
       <r>  -25.3410    1.0000 </r>
       <r>  -24.5895    1.0000 </r>
       <r>  -24.5855    1.0000 </r>
       <r>  -24.5849    1.0000 </r>
       <r>  -22.7699    1.0000 </r>
       <r>  -22.7690    1.0000 </r>
       <r>  -22.7664    1.0000 </r>
       <r>  -22.6580    1.0000 </r>
       <r>  -22.6534    1.0000 </r>
       <r>  -22.6516    1.0000 </r>
       <r>  -22.4560    1.0000 </r>
       <r>  -22.4541    1.0000 </r>
       <r>  -22.4241    1.0000 </r>
       <r>  -22.4214    1.0000 </r>
       <r>  -21.4141    1.0000 </r>
       <r>  -21.3554    1.0000 </r>
       <r>  -21.3524    1.0000 </r>
       <r>  -21.3493    1.0000 </r>
       <r>  -21.2836    1.0000 </r>
       <r>  -21.2823    1.0000 </r>
       <r>  -20.0332    1.0000 </r>
       <r>  -20.0315    1.0000 </r>
       <r>  -20.0108    1.0000 </r>
       <r>  -19.2839    1.0000 </r>
       <r>  -19.2836    1.0000 </r>
       <r>  -19.1224    1.0000 </r>
       <r>  -18.6028    1.0000 </r>
       <r>  -18.6003    1.0000 </r>
       <r>  -18.5101    1.0000 </r>
       <r>  -18.4917    1.0000 </r>
       <r>  -18.4893    1.0000 </r>
       <r>  -18.4784    1.0000 </r>
       <r>  -18.3807    1.0000 </r>
       <r>  -18.3793    1.0000 </r>
       <r>  -18.2091    1.0000 </r>
       <r>  -17.3234    1.0000 </r>
       <r>  -17.3222    1.0000 </r>
       <r>  -16.9374    1.0000 </r>
       <r>  -16.9354    1.0000 </r>
       <r>  -16.9259    1.0000 </r>
       <r>  -16.6534    1.0000 </r>
       <r>  -16.4980    1.0000 </r>
       <r>  -16.4941    1.0000 </r>
       <r>  -15.7569    1.0000 </r>
       <r>  -15.7560    1.0000 </r>
       <r>  -15.3993    1.0000 </r>
       <r>  -15.2434    1.0000 </r>
       <r>  -15.1364    1.0000 </r>
       <r>  -15.0924    1.0000 </r>
       <r>  -15.0905    1.0000 </r>
       <r>  -14.9551    1.0000 </r>
       <r>  -14.9527    1.0000 </r>
       <r>  -14.8034    1.0000 </r>
       <r>  -14.5773    1.0000 </r>
       <r>  -14.5659    1.0000 </r>
       <r>  -14.5654    1.0000 </r>
       <r>  -14.2693    1.0000 </r>
       <r>  -14.2685    1.0000 </r>
       <r>  -14.1140    1.0000 </r>
       <r>  -14.1129    1.0000 </r>
       <r>  -13.6109    1.0000 </r>
       <r>  -13.5820    1.0000 </r>
       <r>  -13.5780    1.0000 </r>
       <r>  -13.4835    1.0000 </r>
       <r>  -13.2801    1.0000 </r>
       <r>  -13.2438    1.0000 </r>
       <r>  -13.2154    1.0000 </r>
       <r>  -13.0549    1.0000 </r>
       <r>  -13.0529    1.0000 </r>
       <r>  -12.8929    1.0000 </r>
       <r>  -12.8915    1.0000 </r>
       <r>  -12.8087    1.0000 </r>
       <r>  -12.6145    1.0000 </r>
       <r>  -12.6124    1.0000 </r>
       <r>  -12.5423    1.0000 </r>
       <r>  -12.2013    1.0000 </r>
       <r>  -11.7957    1.0000 </r>
       <r>  -11.7943    1.0000 </r>
       <r>  -11.5610    1.0000 </r>
       <r>  -11.5603    1.0000 </r>
       <r>  -11.4158    1.0000 </r>
       <r>  -11.2647    1.0000 </r>
       <r>  -11.2439    1.0000 </r>
       <r>  -11.1738    1.0000 </r>
       <r>  -11.1721    1.0000 </r>
       <r>  -11.0195    1.0000 </r>
       <r>  -11.0179    1.0000 </r>
       <r>  -10.9978    1.0000 </r>
       <r>  -10.9256    1.0000 </r>
       <r>  -10.9068    1.0000 </r>
       <r>  -10.9060    1.0000 </r>
       <r>  -10.8320    1.0000 </r>
       <r>  -10.8307    1.0000 </r>
       <r>  -10.7227    1.0000 </r>
       <r>  -10.6618    1.0000 </r>
       <r>  -10.5261    1.0000 </r>
       <r>  -10.5251    1.0000 </r>
       <r>  -10.3983    1.0000 </r>
       <r>  -10.2582    1.0000 </r>
       <r>  -10.2469    1.0000 </r>
       <r>  -10.2366    1.0000 </r>
       <r>  -10.1834    1.0000 </r>
       <r>  -10.1822    1.0000 </r>
       <r>  -10.1315    1.0000 </r>
       <r>  -10.0824    1.0000 </r>
       <r>  -10.0805    1.0000 </r>
       <r>  -10.0507    1.0000 </r>
       <r>   -9.9127    1.0000 </r>
       <r>   -9.9107    1.0000 </r>
       <r>   -9.7931    1.0000 </r>
       <r>   -9.7429    1.0000 </r>
       <r>   -9.7413    1.0000 </r>
       <r>   -9.7166    1.0000 </r>
       <r>   -9.6245    1.0000 </r>
       <r>   -9.6241    1.0000 </r>
       <r>   -9.4900    1.0000 </r>
       <r>   -9.4874    1.0000 </r>
       <r>   -9.3797    1.0000 </r>
       <r>   -9.3777    1.0000 </r>
       <r>   -9.2324    1.0000 </r>
       <r>   -8.9775    1.0000 </r>
       <r>   -8.8967    1.0000 </r>
       <r>   -8.7550    1.0000 </r>
       <r>   -8.6282    1.0000 </r>
       <r>   -8.6027    1.0000 </r>
       <r>   -8.5757    1.0000 </r>
       <r>   -8.5753    1.0000 </r>
       <r>   -8.5439    1.0000 </r>
       <r>   -8.5418    1.0000 </r>
       <r>   -8.5235    1.0000 </r>
       <r>   -8.5190    1.0000 </r>
       <r>   -8.2377    1.0000 </r>
       <r>   -8.1994    1.0000 </r>
       <r>   -8.1978    1.0000 </r>
       <r>   -8.1693    1.0000 </r>
       <r>   -8.1671    1.0000 </r>
       <r>   -8.1169    1.0000 </r>
       <r>   -8.1147    1.0000 </r>
       <r>   -8.1054    1.0000 </r>
       <r>   -8.0757    1.0000 </r>
       <r>   -8.0372    1.0000 </r>
       <r>   -8.0361    1.0000 </r>
       <r>   -7.3767    1.0000 </r>
       <r>   -7.2004    1.0000 </r>
       <r>   -7.2002    1.0000 </r>
       <r>   -7.1117    1.0000 </r>
       <r>   -7.0819    1.0000 </r>
       <r>   -7.0807    1.0000 </r>
       <r>   -6.5754    1.0000 </r>
       <r>   -6.5657    1.0000 </r>
       <r>   -6.5624    1.0000 </r>
       <r>   -6.3934    1.0000 </r>
       <r>   -6.3921    1.0000 </r>
       <r>   -6.3855    1.0000 </r>
       <r>   -6.3737    1.0000 </r>
       <r>   -6.3720    1.0000 </r>
       <r>   -6.3492    1.0000 </r>
       <r>   -6.3217    1.0000 </r>
       <r>   -6.2159    1.0000 </r>
       <r>   -6.2143    1.0000 </r>
       <r>   -6.1382    1.0000 </r>
       <r>   -6.1326    1.0000 </r>
       <r>   -6.1291    1.0000 </r>
       <r>   -5.9417    1.0000 </r>
       <r>   -5.9330    1.0000 </r>
       <r>   -5.9050    1.0000 </r>
       <r>   -5.9028    1.0000 </r>
       <r>   -5.7287    1.0000 </r>
       <r>   -5.7123    1.0000 </r>
       <r>   -5.7105    1.0000 </r>
       <r>   -5.4103    1.0000 </r>
       <r>   -5.4076    1.0000 </r>
       <r>   -5.4045    1.0000 </r>
       <r>   -3.1327    0.0000 </r>
       <r>   -3.1295    0.0000 </r>
       <r>   -2.7183    0.0000 </r>
       <r>   -2.6772    0.0000 </r>
       <r>   -2.6693    0.0000 </r>
       <r>   -2.3542    0.0000 </r>
       <r>   -2.3529    0.0000 </r>
       <r>   -2.2784    0.0000 </r>
       <r>   -1.7325    0.0000 </r>
       <r>   -1.7286    0.0000 </r>
       <r>   -1.5685    0.0000 </r>
       <r>   -1.2692    0.0000 </r>
       <r>   -1.2590    0.0000 </r>
       <r>   -1.2568    0.0000 </r>
       <r>   -1.1839    0.0000 </r>
       <r>   -1.1520    0.0000 </r>
       <r>   -1.1508    0.0000 </r>
       <r>   -0.8234    0.0000 </r>
       <r>   -0.6434    0.0000 </r>
       <r>   -0.6367    0.0000 </r>
       <r>   -0.5547    0.0000 </r>
       <r>   -0.4611    0.0000 </r>
       <r>   -0.4583    0.0000 </r>
       <r>   -0.4201    0.0000 </r>
       <r>   -0.3108    0.0000 </r>
       <r>   -0.3089    0.0000 </r>
       <r>   -0.2259    0.0000 </r>
       <r>   -0.0392    0.0000 </r>
       <r>   -0.0386    0.0000 </r>
       <r>    0.0216    0.0000 </r>
       <r>    0.1697    0.0000 </r>
       <r>    0.1721    0.0000 </r>
       <r>    0.2044    0.0000 </r>
       <r>    0.2347    0.0000 </r>
       <r>    0.2358    0.0000 </r>
       <r>    0.4010    0.0000 </r>
       <r>    0.4047    0.0000 </r>
       <r>    0.4103    0.0000 </r>
       <r>    0.4711    0.0000 </r>
       <r>    0.5157    0.0000 </r>
       <r>    0.5186    0.0000 </r>
       <r>    0.5220    0.0000 </r>
       <r>    0.5807    0.0000 </r>
       <r>    0.6137    0.0000 </r>
       <r>    0.6157    0.0000 </r>
       <r>    0.6219    0.0000 </r>
       <r>    0.6984    0.0000 </r>
       <r>    0.7172    0.0000 </r>
       <r>    0.7242    0.0000 </r>
       <r>    0.7850    0.0000 </r>
       <r>    0.7988    0.0000 </r>
       <r>    0.8044    0.0000 </r>
       <r>    0.8203    0.0000 </r>
       <r>    0.8237    0.0000 </r>
       <r>    0.8619    0.0000 </r>
       <r>    0.8859    0.0000 </r>
       <r>    0.9259    0.0000 </r>
       <r>    0.9346    0.0000 </r>
       <r>    0.9370    0.0000 </r>
       <r>    0.9742    0.0000 </r>
       <r>    1.0274    0.0000 </r>
       <r>    1.0311    0.0000 </r>
       <r>    1.0657    0.0000 </r>
      </set>
      <set comment="kpoint 3">
       <r>  -25.8567    1.0000 </r>
       <r>  -25.8509    1.0000 </r>
       <r>  -25.8490    1.0000 </r>
       <r>  -25.3758    1.0000 </r>
       <r>  -25.3410    1.0000 </r>
       <r>  -24.5895    1.0000 </r>
       <r>  -24.5855    1.0000 </r>
       <r>  -24.5849    1.0000 </r>
       <r>  -22.7699    1.0000 </r>
[...]
       <r>   -22.5630     0.0000    28.0000 </r>
       <r>   -22.4643     3.9267    28.3876 </r>
       <r>   -22.3656    40.5184    36.0000 </r>
       <r>   -22.2668     0.0000    36.0000 </r>
       <r>   -22.1681     0.0000    36.0000 </r>
       <r>   -22.0694     0.0000    36.0000 </r>
       <r>   -21.9707     0.0000    36.0000 </r>
       <r>   -21.8720     0.0000    36.0000 </r>
       <r>   -21.7732     0.0000    36.0000 </r>
       <r>   -21.6745     0.0000    36.0000 </r>
       <r>   -21.5758     0.0000    36.0000 </r>
       <r>   -21.4771     0.0000    36.0000 </r>
       <r>   -21.3784    31.6965    39.1291 </r>
       <r>   -21.2796    74.3702    47.1423 </r>
       <r>   -21.1809     0.0000    48.0000 </r>
       <r>   -21.0822     0.0000    48.0000 </r>
       <r>   -20.9835     0.0000    48.0000 </r>
       <r>   -20.8848     0.0000    48.0000 </r>
       <r>   -20.7860     0.0000    48.0000 </r>
       <r>   -20.6873     0.0000    48.0000 </r>
       <r>   -20.5886     0.0000    48.0000 </r>
       <r>   -20.4899     0.0000    48.0000 </r>
       <r>   -20.3912     0.0000    48.0000 </r>
       <r>   -20.2924     0.0000    48.0000 </r>
       <r>   -20.1937     0.0000    48.0000 </r>
       <r>   -20.0950     0.0000    48.0000 </r>
       <r>   -19.9963    60.6572    53.9881 </r>
       <r>   -19.8976     0.0000    54.0000 </r>
       <r>   -19.7988     0.0000    54.0000 </r>
       <r>   -19.7001     0.0000    54.0000 </r>
       <r>   -19.6014     0.0000    54.0000 </r>
       <r>   -19.5027     0.0000    54.0000 </r>
       <r>   -19.4039     0.0000    54.0000 </r>
       <r>   -19.3052     0.0278    54.0027 </r>
       <r>   -19.2065    41.7359    58.1229 </r>
       <r>   -19.1078    14.1351    59.9958 </r>
       <r>   -19.0091     0.0000    60.0000 </r>
       <r>   -18.9103     0.0000    60.0000 </r>
       <r>   -18.8116     0.0000    60.0000 </r>
       <r>   -18.7129     0.0000    60.0000 </r>
       <r>   -18.6142     3.0203    60.2982 </r>
       <r>   -18.5155    23.0928    64.5799 </r>
       <r>   -18.4167    60.7736    72.0006 </r>
       <r>   -18.3180    42.0437    76.1512 </r>
       <r>   -18.2193    11.9386    77.6788 </r>
       <r>   -18.1206     0.0000    78.0000 </r>
       <r>   -18.0219     0.0000    78.0000 </r>
       <r>   -17.9231     0.0000    78.0000 </r>
       <r>   -17.8244     0.0000    78.0000 </r>
       <r>   -17.7257     0.0000    78.0000 </r>
       <r>   -17.6270     0.0000    78.0000 </r>
       <r>   -17.5283     0.0000    78.0000 </r>
       <r>   -17.4295     0.0000    78.0000 </r>
       <r>   -17.3308     1.7115    78.1690 </r>
       <r>   -17.2321     5.4095    80.8341 </r>
       <r>   -17.1334    10.7930    81.9989 </r>
       <r>   -17.0347     8.3151    82.8209 </r>
       <r>   -16.9359    24.9529    85.4968 </r>
       <r>   -16.8372    11.1469    88.6021 </r>
       <r>   -16.7385     4.3259    89.5272 </r>
       <r>   -16.6398     3.9891    89.9939 </r>
       <r>   -16.5411     0.0000    90.0000 </r>
       <r>   -16.4423    23.4577    92.3158 </r>
       <r>   -16.3436     2.4187    92.6054 </r>
       <r>   -16.2449     2.2204    92.8859 </r>
       <r>   -16.1462     6.7709    93.6018 </r>
       <r>   -16.0474     5.4103    94.2342 </r>
       <r>   -15.9487     7.2743    95.0516 </r>
       <r>   -15.8500     2.6321    95.3932 </r>
       <r>   -15.7513    22.9141    97.7288 </r>
       <r>   -15.6526     0.0000    98.0000 </r>
       <r>   -15.5538     0.0000    98.0000 </r>
       <r>   -15.4551     0.0000    98.0000 </r>
       <r>   -15.3564     6.4303    98.6348 </r>
       <r>   -15.2577    11.5500   100.0072 </r>
       <r>   -15.1590    15.8675   102.0002 </r>
       <r>   -15.0602    60.7754   108.0000 </r>
       <r>   -14.9615     4.4370   108.4380 </r>
       <r>   -14.8628    14.5161   112.0000 </r>
       <r>   -14.7641    20.2592   114.0000 </r>
       <r>   -14.6654     0.0000   114.0000 </r>
       <r>   -14.5666    51.5372   119.0878 </r>
       <r>   -14.4679     0.0000   120.0000 </r>
       <r>   -14.3692     0.0000   120.0000 </r>
       <r>   -14.2705     2.8043   120.2768 </r>
       <r>   -14.1718    26.7461   124.0077 </r>
       <r>   -14.0730    32.0741   128.0000 </r>
       <r>   -13.9743     0.0000   128.0000 </r>
       <r>   -13.8756     0.0000   128.0000 </r>
       <r>   -13.7769     0.0000   128.0000 </r>
       <r>   -13.6782     0.0000   128.0000 </r>
       <r>   -13.5794    45.7664   132.5181 </r>
       <r>   -13.4807     2.0418   134.2016 </r>
       <r>   -13.3820    14.4388   135.9921 </r>
       <r>   -13.2833    17.4170   137.7194 </r>
       <r>   -13.1846    25.3235   142.0000 </r>
       <r>   -13.0858     0.0003   142.0000 </r>
       <r>   -12.9871    29.6337   144.9255 </r>
       <r>   -12.8884    26.7435   148.0403 </r>
       <r>   -12.7897    21.9358   151.9993 </r>
       <r>   -12.6909    12.5201   153.2360 </r>
       <r>   -12.5922    25.9838   155.9985 </r>
       <r>   -12.4935     4.3477   156.4292 </r>
       <r>   -12.3948     4.9967   156.9935 </r>
       <r>   -12.2961     8.4713   158.2031 </r>
       <r>   -12.1973    13.0765   159.9246 </r>
       <r>   -12.0986     0.0000   160.0000 </r>
       <r>   -11.9999     0.0000   160.0000 </r>
       <r>   -11.9012     0.0000   160.0000 </r>
       <r>   -11.8025     5.6647   160.5592 </r>
       <r>   -11.7037     0.0000   164.0000 </r>
       <r>   -11.6050    13.0355   165.2869 </r>
       <r>   -11.5063    25.3227   168.0000 </r>
       <r>   -11.4076     2.5026   168.2471 </r>
       <r>   -11.3089    15.1940   170.0000 </r>
       <r>   -11.2101    40.5184   174.0000 </r>
       <r>   -11.1114    40.5184   178.0000 </r>
       <r>   -11.0127    39.3659   181.8862 </r>
       <r>   -10.9140    51.6492   187.4660 </r>
       <r>   -10.8153    29.9490   192.9566 </r>
       <r>   -10.7165    12.6323   195.2471 </r>
       <r>   -10.6178    10.8188   197.0680 </r>
       <r>   -10.5191    22.6763   199.7054 </r>
       <r>   -10.4204    20.0568   203.3141 </r>
       <r>   -10.3217     8.9600   205.5852 </r>
       <r>   -10.2229    25.6161   208.1956 </r>
       <r>   -10.1242    68.8927   215.1681 </r>
       <r>   -10.0255    46.5787   220.7657 </r>
       <r>    -9.9268     0.5447   222.0538 </r>
       <r>    -9.8281     7.4031   226.0000 </r>
       <r>    -9.7293    50.8547   231.0204 </r>
       <r>    -9.6306    21.5126   236.1237 </r>
       <r>    -9.5319     0.0000   238.0000 </r>
       <r>    -9.4332    50.3705   242.9726 </r>
       <r>    -9.3344    27.0118   246.0000 </r>
       <r>    -9.2357     0.6866   246.0678 </r>
       <r>    -9.1370     7.9993   247.1564 </r>
       <r>    -9.0383    14.6308   249.0778 </r>
       <r>    -8.9396     7.4279   250.0000 </r>
       <r>    -8.8408    20.2592   252.0000 </r>
       <r>    -8.7421    20.1606   253.9903 </r>
       <r>    -8.6434     0.4438   254.0438 </r>
       <r>    -8.5447    74.1243   263.3176 </r>
       <r>    -8.4460    30.6394   269.0254 </r>
       <r>    -8.3472    13.0967   270.7930 </r>
       <r>    -8.2485     6.6718   271.7254 </r>
       <r>    -8.1498    80.8185   279.9785 </r>
       <r>    -8.0511    86.1486   288.5046 </r>
       <r>    -7.9524     0.0000   292.0000 </r>
       <r>    -7.8536     0.0000   292.0000 </r>
       <r>    -7.7549     0.0000   292.0000 </r>
       <r>    -7.6562     0.0000   292.0000 </r>
       <r>    -7.5575     0.0000   292.0000 </r>
       <r>    -7.4588     0.0000   292.0000 </r>
       <r>    -7.3600     5.7142   292.5641 </r>
       <r>    -7.2613    19.4481   294.7867 </r>
       <r>    -7.1626    28.3625   298.0000 </r>
       <r>    -7.0639    60.5381   303.9764 </r>
       <r>    -6.9652     0.0000   304.0000 </r>
       <r>    -6.8664     0.0000   304.0000 </r>
       <r>    -6.7677     0.0000   304.0000 </r>
       <r>    -6.6690     0.0000   304.0000 </r>
       <r>    -6.5703    21.7524   306.1474 </r>
       <r>    -6.4716     0.0000   310.0000 </r>
       <r>    -6.3728    67.8935   316.7025 </r>
       <r>    -6.2741    39.6189   323.9121 </r>
       <r>    -6.1754    37.1360   328.0000 </r>
       <r>    -6.0767    60.7776   334.0000 </r>
       <r>    -5.9779     0.0000   334.0000 </r>
       <r>    -5.8792    81.0264   341.9990 </r>
       <r>    -5.7805     0.0000   342.0000 </r>
       <r>    -5.6818    60.7771   348.0000 </r>
       <r>    -5.5831     0.0000   348.0000 </r>
       <r>    -5.4843     0.0000   348.0000 </r>
       <r>    -5.3856    60.6772   353.9901 </r>
       <r>    -5.2869     0.0000   354.0000 </r>
       <r>    -5.1882     0.0000   354.0000 </r>
       <r>    -5.0895     0.0000   354.0000 </r>
       <r>    -4.9907     0.0000   354.0000 </r>
       <r>    -4.8920     0.0000   354.0000 </r>
       <r>    -4.7933     0.0000   354.0000 </r>
       <r>    -4.6946     0.0000   354.0000 </r>
       <r>    -4.5959     0.0000   354.0000 </r>
       <r>    -4.4971     0.0000   354.0000 </r>
       <r>    -4.3984     0.0000   354.0000 </r>
       <r>    -4.2997     0.0000   354.0000 </r>
       <r>    -4.2010     0.0000   354.0000 </r>
       <r>    -4.1023     0.0000   354.0000 </r>
       <r>    -4.0035     0.0000   354.0000 </r>
       <r>    -3.9048     0.0000   354.0000 </r>
       <r>    -3.8061     0.0000   354.0000 </r>
       <r>    -3.7074     0.0000   354.0000 </r>
       <r>    -3.6087     0.0000   354.0000 </r>
       <r>    -3.5099     0.0000   354.0000 </r>
       <r>    -3.4112     0.0000   354.0000 </r>
       <r>    -3.3125     0.0000   354.0000 </r>
       <r>    -3.2138     0.0000   354.0000 </r>
       <r>    -3.1151    24.7303   356.4414 </r>
       <r>    -3.0163    12.5657   357.9406 </r>
       <r>    -2.9176    10.2050   359.1075 </r>
       <r>    -2.8189     3.2885   359.5246 </r>
       <r>    -2.7202     3.0541   359.9015 </r>
       <r>    -2.6214    23.0658   362.2771 </r>
       <r>    -2.5227     2.9632   362.6592 </r>
       <r>    -2.4240    12.8135   363.9984 </r>
       <r>    -2.3253    40.5176   367.9999 </r>
       <r>    -2.2266     8.9288   368.8815 </r>
       <r>    -2.1278     9.7890   369.9997 </r>
       <r>    -2.0291     8.1940   370.8089 </r>
       <r>    -1.9304     2.9473   371.2577 </r>
       <r>    -1.8317     2.5127   371.5481 </r>
       <r>    -1.7330     9.4471   372.5327 </r>
       <r>    -1.6342     0.0000   374.0000 </r>
       <r>    -1.5355     2.5447   374.2512 </r>
       <r>    -1.4368     2.7329   374.5699 </r>
       <r>    -1.3381     3.4987   374.9787 </r>
       <r>    -1.2394    57.9208   381.0848 </r>
       <r>    -1.1406    46.9478   386.6347 </r>
       <r>    -1.0419    11.5885   388.2112 </r>
       <r>    -0.9432     7.8340   389.1401 </r>
       <r>    -0.8445     4.5250   389.6468 </r>
       <r>    -0.7458     1.3490   390.0000 </r>
       <r>    -0.6470    12.5761   391.2415 </r>
       <r>    -0.5483     5.9873   394.5911 </r>
       <r>    -0.4496    49.4752   400.8842 </r>
       <r>    -0.3509     2.6997   402.0000 </r>
       <r>    -0.2522    24.9741   404.4655 </r>
       <r>    -0.1534    21.3804   406.7441 </r>
       <r>    -0.0547    15.7033   408.3504 </r>
       <r>     0.0440    23.5161   414.0217 </r>
       <r>     0.1427    21.9166   416.4970 </r>
       <r>     0.2414    50.9704   422.2321 </r>
       <r>     0.3402    23.1197   424.8493 </r>
       <r>     0.4389    39.4897   429.1654 </r>
       <r>     0.5376    61.5064   436.0720 </r>
       <r>     0.6363    61.3755   443.7594 </r>
       <r>     0.7351    59.9058   450.6146 </r>
       <r>     0.8338    76.7030   459.3391 </r>
       <r>     0.9325    65.3346   467.4505 </r>
       <r>     1.0312    74.6434   477.3031 </r>
       <r>     1.1299     7.0879   480.0000 </r>
       <r>     1.2287     0.0000   480.0000 </r>
       <r>     1.3274     0.0000   480.0000 </r>
       <r>     1.4261     0.0000   480.0000 </r>
       <r>     1.5248     0.0000   480.0000 </r>
       <r>     1.6235     0.0000   480.0000 </r>
       <r>     1.7223     0.0000   480.0000 </r>
       <r>     1.8210     0.0000   480.0000 </r>
       <r>     1.9197     0.0000   480.0000 </r>
       <r>     2.0184     0.0000   480.0000 </r>
       <r>     2.1171     0.0000   480.0000 </r>
       <r>     2.2159     0.0000   480.0000 </r>
       <r>     2.3146     0.0000   480.0000 </r>
       <r>     2.4133     0.0000   480.0000 </r>
      </set>
     </set>
    </array>
   </total>
  </dos>
 </calculation>
 <structure name="finalpos" >
  <crystal>
   <varray name="basis" >
    <v>      29.26584742       0.00435002       0.00000000 </v>
    <v>     -14.62914169      25.28678945       0.00000000 </v>
    <v>       0.00000000       0.00000000      20.00000000 </v>
   </varray>
   <i name="volume">  14802.05918235 </i>
   <varray name="rec_basis" >
    <v>       0.03416658       0.01976636       0.00000000 </v>
    <v>      -0.00000588       0.03954294       0.00000000 </v>
    <v>       0.00000000       0.00000000       0.05000000 </v>
   </varray>
  </crystal>
  <varray name="positions" >
   <v>       0.50487936       0.62020070       0.53837582 </v>
   <v>       0.45969779       0.67361913       0.53153685 </v>
   <v>       0.36215741       0.48297532       0.47048227 </v>
   <v>       0.31698319       0.53566939       0.46755519 </v>
   <v>       0.21532961       0.54085010       0.53102617 </v>
   <v>       0.11673881       0.49556387       0.53705001 </v>
   <v>       0.22079603       0.68389932       0.46675027 </v>
   <v>       0.12299276       0.63862984       0.46885519 </v>
   <v>       0.32758782       0.78577784       0.53066308 </v>
   <v>       0.38110102       0.88451417       0.53696647 </v>
   <v>       0.51777177       0.87836620       0.46902664 </v>
   <v>       0.46501078       0.78035467       0.46678182 </v>
   <v>       0.48466847       0.36386121       0.48307987 </v>
   <v>       0.53625968       0.31674639       0.48093683 </v>
   <v>       0.62782876       0.51045685       0.52380705 </v>
   <v>       0.67885098       0.46355918       0.51900733 </v>
   <v>       0.78297950       0.46637372       0.48087653 </v>
   <v>       0.88171424       0.51746344       0.48220509 </v>
   <v>       0.78580555       0.32278648       0.51690097 </v>
   <v>       0.88373783       0.37329770       0.52104366 </v>
   <v>       0.68501307       0.21918969       0.48001635 </v>
   <v>       0.63744609       0.12031553       0.48196251 </v>
   <v>       0.49158987       0.11794989       0.52272307 </v>
   <v>       0.53894670       0.21600121       0.51826618 </v>
   <v>       0.54767102       0.07418865       0.65660627 </v>
   <v>       0.50254580       0.08814609       0.69528645 </v>
   <v>       0.52827380       0.45248721       0.65719802 </v>
   <v>       0.58678367       0.49808720       0.69678386 </v>
   <v>       0.92664469       0.47400601       0.65492135 </v>
   <v>       0.91238786       0.41512881       0.69474588 </v>
   <v>       0.54025715       0.95918223       0.42715221 </v>
   <v>       0.42034997       0.46073328       0.42878033 </v>
   <v>       0.04280193       0.58053108       0.42654913 </v>
   <v>       0.38851440       0.69210278       0.49691204 </v>
   <v>       0.30888712       0.69564692       0.49726863 </v>
   <v>       0.30532666       0.61235798       0.49750165 </v>
   <v>       0.61379437       0.30600757       0.49911610 </v>
   <v>       0.69615712       0.30809488       0.49838947 </v>
   <v>       0.69417928       0.38861865       0.49986836 </v>
   <v>       0.46781428       0.97028539       0.55072436 </v>
   <v>       0.51134104       0.07031875       0.65800629 </v>
   <v>       0.50377504       0.53325575       0.55257440 </v>
   <v>       0.56016598       0.48928849       0.65951381 </v>
   <v>       0.03090457       0.49680358       0.55050559 </v>
   <v>       0.93058214       0.44155066       0.65732331 </v>
   <v>       0.55128784       0.03009750       0.46362192 </v>
   <v>       0.48027828       0.44995261       0.46510552 </v>
   <v>       0.97180088       0.52089070       0.46291844 </v>
   <v>       0.43201433       0.04282635       0.60643170 </v>
   <v>       0.61132245       0.56954204       0.60933630 </v>
   <v>       0.95798973       0.38895193       0.60742089 </v>
   <v>       0.35844118       0.63906818       0.49742750 </v>
   <v>       0.36184985       0.71858922       0.49712254 </v>
   <v>       0.28242760       0.64242421       0.49740330 </v>
   <v>       0.39297285       0.77700230       0.49809676 </v>
   <v>       0.44673531       0.80354219       0.48088891 </v>
   <v>       0.47598681       0.85848397       0.48212366 </v>
   <v>       0.45259372       0.88818208       0.50235073 </v>
   <v>       0.39892486       0.86141564       0.52048277 </v>
   <v>       0.36930993       0.80660770       0.51741435 </v>
   <v>       0.38563390       0.60795549       0.49886660 </v>
   <v>       0.43883717       0.63180088       0.51840106 </v>
   <v>       0.46399004       0.60223953       0.52181062 </v>
   <v>       0.43707360       0.54843823       0.50386780 </v>
   <v>       0.38404216       0.52486072       0.48345646 </v>
   <v>       0.35839832       0.55406790       0.48184690 </v>
   <v>       0.22411760       0.61510821       0.49829682 </v>
   <v>       0.19454243       0.56176926       0.51764092 </v>
   <v>       0.13982106       0.53654380       0.52056271 </v>
   <v>       0.11314672       0.56351387       0.50226987 </v>
   <v>       0.14282235       0.61668222       0.48203923 </v>
   <v>       0.19765703       0.64238783       0.48091206 </v>
   <v>       0.64114202       0.35919495       0.49961995 </v>
   <v>       0.64307279       0.28226152       0.49880901 </v>
   <v>       0.71988455       0.36120535       0.49902789 </v>
   <v>       0.61503180       0.22379436       0.49975662 </v>
   <v>       0.56037150       0.19476212       0.51135825 </v>
   <v>       0.53409687       0.13984511       0.51412542 </v>
   <v>       0.56179288       0.11250845       0.50443697 </v>
   <v>       0.61627811       0.14160749       0.49094632 </v>
   <v>       0.64268255       0.19652147       0.48940754 </v>
   <v>       0.61068908       0.38711301       0.50071568 </v>
   <v>       0.55577732       0.35913304       0.49038693 </v>
   <v>       0.52711281       0.38527841       0.49204093 </v>
   <v>       0.55233258       0.43982590       0.50565047 </v>
   <v>       0.60736537       0.46787914       0.51520006 </v>
   <v>       0.63617957       0.44186927       0.51226558 </v>
   <v>       0.77824332       0.39147986       0.49961663 </v>
   <v>       0.80555185       0.44652310       0.48965716 </v>
   <v>       0.86037243       0.47489826       0.49085847 </v>
   <v>       0.88928701       0.44922356       0.50370459 </v>
   <v>       0.86192784       0.39406456       0.51290335 </v>
   <v>       0.80710317       0.36555062       0.51037764 </v>
   <v>       0.53483711       0.05417990       0.50716895 </v>
   <v>       0.48297101       0.94645041       0.50546035 </v>
   <v>       0.49371160       0.02305829       0.55273152 </v>
   <v>       0.47574160       0.04637725       0.60780103 </v>
   <v>       0.52077768       0.46647365       0.50868058 </v>
   <v>       0.46490166       0.51810774       0.50717803 </v>
   <v>       0.53061080       0.50740733       0.55452977 </v>
   <v>       0.57160882       0.52533620       0.60988404 </v>
   <v>       0.94748895       0.48041207       0.50652211 </v>
   <v>       0.05498893       0.53573962       0.50516814 </v>
   <v>       0.97824411       0.47023321       0.55238279 </v>
   <v>       0.95458906       0.42929120       0.60782812 </v>
   <v>       0.52625682       0.97750430       0.46324737 </v>
   <v>       0.45266283       0.47482318       0.46486959 </v>
   <v>       0.02429859       0.54822475       0.46269972 </v>
  </varray>
 </structure>
</modeling>
