<?xml version="1.0" encoding="ISO-8859-1"?>
<modeling>
 <generator>
  <i name="program" type="string">vasp </i>
  <i name="version" type="string">5.4.4.18Apr17-6-g9f103f2a35  </i>
  <i name="subversion" type="string">(build Jun 07 2020 16:50:00) complex            parallel </i>
  <i name="platform" type="string">LinuxIFC </i>
  <i name="date" type="string">2023 02 27 </i>
  <i name="time" type="string">16:49:35 </i>
 </generator>
 <incar>
  <i type="string" name="SYSTEM">Simulation for cell shape cell volume r</i>
  <i type="int" name="ISTART">     1</i>
  <i type="string" name="PREC">high</i>
  <i type="string" name="ALGO">48</i>
  <i type="int" name="ICHARG">    11</i>
  <i type="int" name="NELM">   200</i>
  <i type="int" name="IBRION">    -1</i>
  <i name="EDIFF">      0.00001000</i>
  <i name="EDIFFG">     -0.01000000</i>
  <i type="int" name="NSW">     0</i>
  <i type="int" name="ISIF">     2</i>
  <i name="ENCUT">    500.00000000</i>
  <i name="POTIM">      0.30000000</i>
  <i type="string" name="LREAL">A</i>
  <i type="int" name="ISMEAR">     0</i>
  <i name="SIGMA">      0.01000000</i>
  <i type="int" name="NWRITE">     0</i>
  <i type="logical" name="LWAVE"> F  </i>
  <i type="logical" name="LCHARG"> F  </i>
  <v type="int" name="KPOINT_BSE">    -1     0     0     0</v>
  <i type="int" name="NELM">   200</i>
  <i type="string" name="GGA">PE</i>
 </incar>
 <structure name="primitive_cell" >
  <crystal>
   <varray name="basis" >
    <v>      14.69972573      -0.00561150       0.00000000 </v>
    <v>       0.09601441      26.28528915       0.00000000 </v>
    <v>       0.00025525       0.00015594      20.00000000 </v>
   </varray>
   <i name="volume">   7727.74160011 </i>
   <varray name="rec_basis" >
    <v>       0.06802839      -0.00024849      -0.00000087 </v>
    <v>       0.00001452       0.03804404      -0.00000030 </v>
    <v>       0.00000000       0.00000000       0.05000000 </v>
   </varray>
  </crystal>
  <varray name="positions" >
   <v>       0.09196496       0.08276988       0.48802498 </v>
   <v>       0.00825342       0.10818505       0.49017852 </v>
   <v>       0.09300360       0.02876360       0.48379104 </v>
   <v>       0.17651087       0.11311419       0.49193703 </v>
   <v>       0.00820182       0.14947931       0.49605220 </v>
   <v>      -0.07533244       0.08289363       0.48882322 </v>
   <v>       0.00859439       0.00158880       0.48407577 </v>
   <v>       0.17526772       0.00013621       0.47593245 </v>
   <v>       0.18850366       0.15611019       0.45103301 </v>
   <v>       0.24633936       0.10093629      -0.46259906 </v>
   <v>       0.13569787       0.16611301       0.41492754 </v>
   <v>       0.23892187       0.02045939       0.46846009 </v>
   <v>       0.23737043       0.06896593      -0.42847693 </v>
   <v>      -0.07601834       0.02889475       0.48422856 </v>
   <v>       0.17548458      -0.05182040       0.47621325 </v>
   <v>       0.00880134      -0.05301749       0.48406419 </v>
   <v>      -0.15997277       0.11337947       0.49375943 </v>
   <v>       0.26775377       0.18493983       0.45422065 </v>
   <v>       0.32568798       0.12957067      -0.45965075 </v>
   <v>      -0.11984205       0.16721576       0.41769302 </v>
   <v>      -0.15809039       0.00040494       0.47631648 </v>
   <v>       0.09342454      -0.08031490       0.48417722 </v>
   <v>       0.33846046       0.17184789       0.49834637 </v>
   <v>      -0.17237408       0.15687937       0.45375932 </v>
   <v>       0.23932281      -0.07225210       0.46899323 </v>
   <v>       0.27649986       0.21711312       0.42033900 </v>
   <v>       0.37827058       0.11964577      -0.42334044 </v>
   <v>      -0.22949389       0.10088365      -0.46076170 </v>
   <v>      -0.22015179       0.06857969      -0.42718544 </v>
   <v>      -0.22193844       0.02083874       0.46916464 </v>
   <v>      -0.07560410      -0.08019364       0.48380257 </v>
   <v>      -0.15787041      -0.05155367       0.47600769 </v>
   <v>       0.09277730      -0.13431079       0.48876888 </v>
   <v>      -0.25185035       0.18573658       0.45764866 </v>
   <v>       0.42467992       0.20071396       0.49981585 </v>
   <v>       0.23762067      -0.11997040      -0.42722673 </v>
   <v>      -0.30913651       0.12953935      -0.45717478 </v>
   <v>      -0.22152677      -0.07187522       0.46856431 </v>
   <v>      -0.07453565      -0.13420338       0.48798725 </v>
   <v>      -0.49169676       0.13309662      -0.49586108 </v>
   <v>       0.36070307       0.27419991       0.49175175 </v>
   <v>      -0.26109904       0.21823943       0.42433367 </v>
   <v>       0.00919066      -0.15960881       0.49011277 </v>
   <v>      -0.32241906       0.17220018      -0.49845408 </v>
   <v>      -0.49208873       0.17461043      -0.49636011 </v>
   <v>       0.17744490      -0.16478188       0.49372307 </v>
   <v>       0.24696016      -0.15228393      -0.46078564 </v>
   <v>       0.42539668       0.25394432       0.49536732 </v>
   <v>      -0.36160946       0.11927042      -0.42103480 </v>
   <v>      -0.21987742      -0.12041620      -0.42848092 </v>
   <v>      -0.15906156      -0.16456541       0.49192743 </v>
   <v>       0.00927042      -0.20090438       0.49595475 </v>
   <v>       0.32659843      -0.18094643      -0.45715892 </v>
   <v>       0.18989367      -0.20827800       0.45372504 </v>
   <v>      -0.22885992      -0.15240001      -0.46257704 </v>
   <v>      -0.40921286       0.20084048      -0.49783345 </v>
   <v>      -0.49278962       0.28145850       0.49583709 </v>
   <v>       0.13740765      -0.21861161       0.41762178 </v>
   <v>       0.37905032      -0.17065834      -0.42101002 </v>
   <v>      -0.34619348       0.27453404      -0.49867173 </v>
   <v>       0.37531687       0.34659172      -0.45883346 </v>
   <v>      -0.17106162      -0.20756846       0.45104282 </v>
   <v>      -0.41059337       0.25411991       0.49905254 </v>
   <v>      -0.11831715      -0.21755457       0.41487982 </v>
   <v>       0.26934329      -0.23715248       0.45767190 </v>
   <v>       0.33989375      -0.22362601      -0.49840950 </v>
   <v>       0.43303774       0.36620023      -0.48127674 </v>
   <v>      -0.49293643       0.33779949       0.49397632 </v>
   <v>      -0.30820641      -0.18103823      -0.45959897 </v>
   <v>      -0.49076333      -0.18457780      -0.49577631 </v>
   <v>      -0.36118878       0.34448605       0.44624838 </v>
   <v>      -0.36079177      -0.17109954      -0.42329349 </v>
   <v>       0.27858984      -0.26966566       0.42437535 </v>
   <v>      -0.25028116      -0.23642488       0.45429218 </v>
   <v>       0.42667010      -0.25229577      -0.49776259 </v>
   <v>      -0.32097624      -0.22333642       0.49843229 </v>
   <v>      -0.49042963      -0.22608956      -0.49628071 </v>
   <v>       0.43312541       0.41915150      -0.48271095 </v>
   <v>       0.37535118       0.44013676      -0.46212947 </v>
   <v>      -0.41860455       0.36503480       0.46798309 </v>
   <v>      -0.25900178      -0.26862455       0.42044871 </v>
   <v>       0.42803551      -0.30557671       0.49909474 </v>
   <v>      -0.49177977       0.44615505       0.49241413 </v>
   <v>      -0.41751323       0.41797948       0.46792304 </v>
   <v>       0.36363908      -0.32599334      -0.49865360 </v>
   <v>      -0.40720814      -0.25220249       0.49989996 </v>
   <v>      -0.35924398       0.43804515       0.44687387 </v>
   <v>       0.37680418      -0.48952596       0.44673670 </v>
   <v>      -0.34325434      -0.32568566       0.49176936 </v>
   <v>      -0.48977643      -0.33292745       0.49588768 </v>
   <v>      -0.40794538      -0.30542861       0.49541792 </v>
   <v>      -0.49077732      -0.49762564       0.49242584 </v>
   <v>       0.43499938      -0.46944767       0.46787156 </v>
   <v>      -0.35798493      -0.49161418      -0.46199830 </v>
   <v>       0.37868972      -0.39594747       0.44619076 </v>
   <v>      -0.41572409      -0.47062642      -0.48262831 </v>
   <v>      -0.48963704      -0.38926902       0.49401421 </v>
   <v>       0.43606934      -0.41650038       0.46796242 </v>
   <v>      -0.35795208      -0.39806660      -0.45871433 </v>
   <v>      -0.41564319      -0.41767533      -0.48119217 </v>
  </varray>
 </structure>
 <varray name="primitive_index" >
  <v type="int" >        1 </v>
  <v type="int" >       13 </v>
  <v type="int" >        2 </v>
  <v type="int" >       38 </v>
  <v type="int" >       84 </v>
  <v type="int" >       12 </v>
  <v type="int" >       10 </v>
  <v type="int" >        3 </v>
  <v type="int" >        8 </v>
  <v type="int" >       64 </v>
  <v type="int" >       66 </v>
  <v type="int" >       70 </v>
  <v type="int" >       96 </v>
  <v type="int" >       11 </v>
  <v type="int" >        6 </v>
  <v type="int" >       15 </v>
  <v type="int" >       59 </v>
  <v type="int" >       36 </v>
  <v type="int" >       63 </v>
  <v type="int" >       77 </v>
  <v type="int" >       14 </v>
  <v type="int" >        5 </v>
  <v type="int" >       62 </v>
  <v type="int" >       35 </v>
  <v type="int" >       69 </v>
  <v type="int" >       79 </v>
  <v type="int" >       95 </v>
  <v type="int" >       60 </v>
  <v type="int" >       93 </v>
  <v type="int" >       68 </v>
  <v type="int" >       16 </v>
  <v type="int" >       18 </v>
  <v type="int" >        4 </v>
  <v type="int" >       34 </v>
  <v type="int" >       54 </v>
  <v type="int" >       85 </v>
  <v type="int" >       61 </v>
  <v type="int" >       67 </v>
  <v type="int" >       17 </v>
  <v type="int" >      100 </v>
  <v type="int" >       82 </v>
  <v type="int" >       78 </v>
  <v type="int" >        9 </v>
  <v type="int" >       58 </v>
  <v type="int" >       55 </v>
  <v type="int" >       37 </v>
  <v type="int" >       46 </v>
  <v type="int" >       29 </v>
  <v type="int" >       94 </v>
  <v type="int" >       88 </v>
  <v type="int" >       51 </v>
  <v type="int" >       83 </v>
  <v type="int" >       47 </v>
  <v type="int" >        7 </v>
  <v type="int" >       50 </v>
  <v type="int" >       52 </v>
  <v type="int" >       28 </v>
  <v type="int" >       65 </v>
  <v type="int" >       86 </v>
  <v type="int" >       99 </v>
  <v type="int" >       97 </v>
  <v type="int" >       26 </v>
  <v type="int" >       53 </v>
  <v type="int" >       73 </v>
  <v type="int" >       25 </v>
  <v type="int" >       45 </v>
  <v type="int" >       57 </v>
  <v type="int" >       30 </v>
  <v type="int" >       49 </v>
  <v type="int" >       92 </v>
  <v type="int" >       81 </v>
  <v type="int" >       87 </v>
  <v type="int" >       71 </v>
  <v type="int" >       27 </v>
  <v type="int" >       39 </v>
  <v type="int" >       48 </v>
  <v type="int" >       42 </v>
  <v type="int" >       56 </v>
  <v type="int" >       98 </v>
  <v type="int" >       31 </v>
  <v type="int" >       72 </v>
  <v type="int" >       40 </v>
  <v type="int" >       33 </v>
  <v type="int" >       32 </v>
  <v type="int" >       91 </v>
  <v type="int" >       41 </v>
  <v type="int" >       80 </v>
  <v type="int" >       74 </v>
  <v type="int" >       76 </v>
  <v type="int" >       19 </v>
  <v type="int" >       20 </v>
  <v type="int" >       24 </v>
  <v type="int" >       23 </v>
  <v type="int" >       90 </v>
  <v type="int" >       75 </v>
  <v type="int" >       43 </v>
  <v type="int" >       21 </v>
  <v type="int" >       22 </v>
  <v type="int" >       89 </v>
  <v type="int" >       44 </v>
 </varray>
 <kpoints>
  <generation param="listgenerated">
   <i name="divisions" type="int">      20 </i>
   <v>       0.00000000       0.00000000       0.00000000 </v>
   <v>       0.50000000       0.00000000       0.00000000 </v>
   <v>       0.50000000       0.50000000       0.00000000 </v>
   <v>       0.00000000       0.50000000       0.00000000 </v>
   <v>       0.00000000       0.00000000       0.00000000 </v>
  </generation>
  <varray name="kpointlist" >
   <v>       0.00000000       0.00000000       0.00000000 </v>
   <v>       0.02631579       0.00000000       0.00000000 </v>
   <v>       0.05263158       0.00000000       0.00000000 </v>
   <v>       0.07894737       0.00000000       0.00000000 </v>
   <v>       0.10526316       0.00000000       0.00000000 </v>
   <v>       0.13157895       0.00000000       0.00000000 </v>
   <v>       0.15789474       0.00000000       0.00000000 </v>
   <v>       0.18421053       0.00000000       0.00000000 </v>
   <v>       0.21052632       0.00000000       0.00000000 </v>
   <v>       0.23684211       0.00000000       0.00000000 </v>
   <v>       0.26315789       0.00000000       0.00000000 </v>
   <v>       0.28947368       0.00000000       0.00000000 </v>
   <v>       0.31578947       0.00000000       0.00000000 </v>
   <v>       0.34210526       0.00000000       0.00000000 </v>
   <v>       0.36842105       0.00000000       0.00000000 </v>
   <v>       0.39473684       0.00000000       0.00000000 </v>
   <v>       0.42105263       0.00000000       0.00000000 </v>
   <v>       0.44736842       0.00000000       0.00000000 </v>
   <v>       0.47368421       0.00000000       0.00000000 </v>
   <v>       0.50000000       0.00000000       0.00000000 </v>
   <v>       0.50000000       0.00000000       0.00000000 </v>
   <v>       0.50000000       0.02631579       0.00000000 </v>
   <v>       0.50000000       0.05263158       0.00000000 </v>
   <v>       0.50000000       0.07894737       0.00000000 </v>
   <v>       0.50000000       0.10526316       0.00000000 </v>
   <v>       0.50000000       0.13157895       0.00000000 </v>
   <v>       0.50000000       0.15789474       0.00000000 </v>
   <v>       0.50000000       0.18421053       0.00000000 </v>
   <v>       0.50000000       0.21052632       0.00000000 </v>
   <v>       0.50000000       0.23684211       0.00000000 </v>
   <v>       0.50000000       0.26315789       0.00000000 </v>
   <v>       0.50000000       0.28947368       0.00000000 </v>
   <v>       0.50000000       0.31578947       0.00000000 </v>
   <v>       0.50000000       0.34210526       0.00000000 </v>
   <v>       0.50000000       0.36842105       0.00000000 </v>
   <v>       0.50000000       0.39473684       0.00000000 </v>
   <v>       0.50000000       0.42105263       0.00000000 </v>
   <v>       0.50000000       0.44736842       0.00000000 </v>
   <v>       0.50000000       0.47368421       0.00000000 </v>
   <v>       0.50000000       0.50000000       0.00000000 </v>
   <v>       0.50000000       0.50000000       0.00000000 </v>
   <v>       0.47368421       0.50000000       0.00000000 </v>
   <v>       0.44736842       0.50000000       0.00000000 </v>
   <v>       0.42105263       0.50000000       0.00000000 </v>
   <v>       0.39473684       0.50000000       0.00000000 </v>
   <v>       0.36842105       0.50000000       0.00000000 </v>
   <v>       0.34210526       0.50000000       0.00000000 </v>
   <v>       0.31578947       0.50000000       0.00000000 </v>
   <v>       0.28947368       0.50000000       0.00000000 </v>
   <v>       0.26315789       0.50000000       0.00000000 </v>
   <v>       0.23684211       0.50000000       0.00000000 </v>
   <v>       0.21052632       0.50000000       0.00000000 </v>
   <v>       0.18421053       0.50000000       0.00000000 </v>
   <v>       0.15789474       0.50000000       0.00000000 </v>
   <v>       0.13157895       0.50000000       0.00000000 </v>
   <v>       0.10526316       0.50000000       0.00000000 </v>
   <v>       0.07894737       0.50000000       0.00000000 </v>
   <v>       0.05263158       0.50000000       0.00000000 </v>
   <v>       0.02631579       0.50000000       0.00000000 </v>
   <v>       0.00000000       0.50000000       0.00000000 </v>
   <v>       0.00000000       0.50000000       0.00000000 </v>
   <v>       0.00000000       0.47368421       0.00000000 </v>
   <v>       0.00000000       0.44736842       0.00000000 </v>
   <v>       0.00000000       0.42105263       0.00000000 </v>
   <v>       0.00000000       0.39473684       0.00000000 </v>
   <v>       0.00000000       0.36842105       0.00000000 </v>
   <v>       0.00000000       0.34210526       0.00000000 </v>
   <v>       0.00000000       0.31578947       0.00000000 </v>
   <v>       0.00000000       0.28947368       0.00000000 </v>
   <v>       0.00000000       0.26315789       0.00000000 </v>
   <v>       0.00000000       0.23684211       0.00000000 </v>
   <v>       0.00000000       0.21052632       0.00000000 </v>
   <v>       0.00000000       0.18421053       0.00000000 </v>
   <v>       0.00000000       0.15789474       0.00000000 </v>
   <v>       0.00000000       0.13157895       0.00000000 </v>
   <v>       0.00000000       0.10526316       0.00000000 </v>
   <v>       0.00000000       0.07894737       0.00000000 </v>
   <v>       0.00000000       0.05263158       0.00000000 </v>
   <v>       0.00000000       0.02631579       0.00000000 </v>
   <v>       0.00000000       0.00000000       0.00000000 </v>
  </varray>
  <varray name="weights" >
   <v>       0.01250000 </v>
   <v>       0.01250000 </v>
   <v>       0.01250000 </v>
   <v>       0.01250000 </v>
   <v>       0.01250000 </v>
   <v>       0.01250000 </v>
   <v>       0.01250000 </v>
   <v>       0.01250000 </v>
   <v>       0.01250000 </v>
   <v>       0.01250000 </v>
   <v>       0.01250000 </v>
   <v>       0.01250000 </v>
   <v>       0.01250000 </v>
   <v>       0.01250000 </v>
   <v>       0.01250000 </v>
   <v>       0.01250000 </v>
   <v>       0.01250000 </v>
   <v>       0.01250000 </v>
   <v>       0.01250000 </v>
   <v>       0.01250000 </v>
   <v>       0.01250000 </v>
   <v>       0.01250000 </v>
   <v>       0.01250000 </v>
   <v>       0.01250000 </v>
   <v>       0.01250000 </v>
   <v>       0.01250000 </v>
   <v>       0.01250000 </v>
   <v>       0.01250000 </v>
   <v>       0.01250000 </v>
   <v>       0.01250000 </v>
   <v>       0.01250000 </v>
   <v>       0.01250000 </v>
   <v>       0.01250000 </v>
   <v>       0.01250000 </v>
   <v>       0.01250000 </v>
   <v>       0.01250000 </v>
   <v>       0.01250000 </v>
   <v>       0.01250000 </v>
   <v>       0.01250000 </v>
   <v>       0.01250000 </v>
   <v>       0.01250000 </v>
   <v>       0.01250000 </v>
   <v>       0.01250000 </v>
   <v>       0.01250000 </v>
   <v>       0.01250000 </v>
   <v>       0.01250000 </v>
   <v>       0.01250000 </v>
   <v>       0.01250000 </v>
   <v>       0.01250000 </v>
   <v>       0.01250000 </v>
   <v>       0.01250000 </v>
   <v>       0.01250000 </v>
   <v>       0.01250000 </v>
   <v>       0.01250000 </v>
   <v>       0.01250000 </v>
   <v>       0.01250000 </v>
   <v>       0.01250000 </v>
   <v>       0.01250000 </v>
   <v>       0.01250000 </v>
   <v>       0.01250000 </v>
   <v>       0.01250000 </v>
   <v>       0.01250000 </v>
   <v>       0.01250000 </v>
   <v>       0.01250000 </v>
   <v>       0.01250000 </v>
   <v>       0.01250000 </v>
   <v>       0.01250000 </v>
   <v>       0.01250000 </v>
   <v>       0.01250000 </v>
   <v>       0.01250000 </v>
   <v>       0.01250000 </v>
   <v>       0.01250000 </v>
   <v>       0.01250000 </v>
   <v>       0.01250000 </v>
   <v>       0.01250000 </v>
   <v>       0.01250000 </v>
   <v>       0.01250000 </v>
   <v>       0.01250000 </v>
   <v>       0.01250000 </v>
   <v>       0.01250000 </v>
  </varray>
 </kpoints>
 <parameters>
  <separator name="general" >
   <i type="string" name="SYSTEM">Simulation for cell shape cell volume r</i>
   <i type="logical" name="LCOMPAT"> F  </i>
  </separator>
  <separator name="electronic" >
   <i type="string" name="PREC">high</i>
   <i name="ENMAX">    500.00000000</i>
   <i name="ENAUG">    644.87300000</i>
   <i name="EDIFF">      0.00001000</i>
   <i type="int" name="IALGO">    38</i>
   <i type="int" name="IWAVPR">    10</i>
   <i type="int" name="NBANDS">   208</i>
   <i name="NELECT">    292.00000000</i>
   <i type="int" name="TURBO">     0</i>
   <i type="int" name="IRESTART">     0</i>
   <i type="int" name="NREBOOT">     0</i>
   <i type="int" name="NMIN">     0</i>
   <i name="EREF">      0.00000000</i>
   <separator name="electronic smearing" >
    <i type="int" name="ISMEAR">     0</i>
    <i name="SIGMA">      0.01000000</i>
    <i name="KSPACING">      0.50000000</i>
    <i type="logical" name="KGAMMA"> T  </i>
   </separator>
   <separator name="electronic projectors" >
    <i type="logical" name="LREAL"> T  </i>
    <v name="ROPT">     -0.00040000     -0.00040000</v>
    <i type="int" name="LMAXPAW">  -100</i>
    <i type="int" name="LMAXMIX">     2</i>
    <i type="logical" name="NLSPLINE"> F  </i>
   </separator>
   <separator name="electronic startup" >
    <i type="int" name="ISTART">     1</i>
    <i type="int" name="ICHARG">    11</i>
    <i type="int" name="INIWAV">     1</i>
   </separator>
   <separator name="electronic spin" >
    <i type="int" name="ISPIN">     1</i>
    <i type="logical" name="LNONCOLLINEAR"> F  </i>
    <v name="MAGMOM">      1.00000000      1.00000000      1.00000000      1.00000000      1.00000000      1.00000000      1.00000000      1.00000000      1.00000000      1.00000000      1.00000000      1.00000000      1.00000000      1.00000000      1.00000000      1.00000000      1.00000000      1.00000000      1.00000000      1.00000000
      1.00000000      1.00000000      1.00000000      1.00000000      1.00000000      1.00000000      1.00000000      1.00000000      1.00000000      1.00000000      1.00000000      1.00000000      1.00000000      1.00000000      1.00000000      1.00000000      1.00000000      1.00000000      1.00000000      1.00000000
      1.00000000      1.00000000      1.00000000      1.00000000      1.00000000      1.00000000      1.00000000      1.00000000      1.00000000      1.00000000      1.00000000      1.00000000      1.00000000      1.00000000      1.00000000      1.00000000      1.00000000      1.00000000      1.00000000      1.00000000
      1.00000000      1.00000000      1.00000000      1.00000000      1.00000000      1.00000000      1.00000000      1.00000000      1.00000000      1.00000000      1.00000000      1.00000000      1.00000000      1.00000000      1.00000000      1.00000000      1.00000000      1.00000000      1.00000000      1.00000000
      1.00000000      1.00000000      1.00000000      1.00000000      1.00000000      1.00000000      1.00000000      1.00000000      1.00000000      1.00000000      1.00000000      1.00000000      1.00000000      1.00000000      1.00000000      1.00000000      1.00000000      1.00000000      1.00000000      1.00000000
</v>
    <i name="NUPDOWN">     -1.00000000</i>
    <i type="logical" name="LSORBIT"> F  </i>
    <v name="SAXIS">      0.00000000      0.00000000      1.00000000</v>
    <i type="logical" name="LSPIRAL"> F  </i>
    <v name="QSPIRAL">      0.00000000      0.00000000      0.00000000</v>
    <i type="logical" name="LZEROZ"> F  </i>
   </separator>
   <separator name="electronic exchange-correlation" >
    <i type="logical" name="LASPH"> F  </i>
    <i type="logical" name="LMETAGGA"> F  </i>
   </separator>
   <separator name="electronic convergence" >
    <i type="int" name="NELM">   200</i>
    <i type="int" name="NELMDL">     0</i>
    <i type="int" name="NELMIN">     2</i>
    <i name="ENINI">    500.00000000</i>
    <separator name="electronic convergence detail" >
     <i type="logical" name="LDIAG"> T  </i>
     <i type="logical" name="LSUBROT"> F  </i>
     <i name="WEIMIN">      0.00000000</i>
     <i name="EBREAK">      0.00000001</i>
     <i name="DEPER">      0.30000000</i>
     <i type="int" name="NRMM">     4</i>
     <i name="TIME">      0.40000000</i>
    </separator>
   </separator>
   <separator name="electronic mixer" >
    <i name="AMIX">      0.40000000</i>
    <i name="BMIX">      1.00000000</i>
    <i name="AMIN">      0.10000000</i>
    <i name="AMIX_MAG">      1.60000000</i>
    <i name="BMIX_MAG">      1.00000000</i>
    <separator name="electronic mixer details" >
     <i type="int" name="IMIX">     4</i>
     <i type="logical" name="MIXFIRST"> F  </i>
     <i type="int" name="MAXMIX">   -45</i>
     <i name="WC">    100.00000000</i>
     <i type="int" name="INIMIX">     1</i>
     <i type="int" name="MIXPRE">     1</i>
     <i type="int" name="MREMOVE">     5</i>
    </separator>
   </separator>
   <separator name="electronic dipolcorrection" >
    <i type="logical" name="LDIPOL"> F  </i>
    <i type="logical" name="LMONO"> F  </i>
    <i type="int" name="IDIPOL">     0</i>
    <i name="EPSILON">      1.00000000</i>
    <v name="DIPOL">   -100.00000000   -100.00000000   -100.00000000</v>
    <i name="EFIELD">      0.00000000</i>
   </separator>
  </separator>
  <separator name="grids" >
   <i type="int" name="NGX">   108</i>
   <i type="int" name="NGY">   192</i>
   <i type="int" name="NGZ">   150</i>
   <i type="int" name="NGXF">   162</i>
   <i type="int" name="NGYF">   294</i>
   <i type="int" name="NGZF">   224</i>
   <i type="logical" name="ADDGRID"> F  </i>
  </separator>
  <separator name="ionic" >
   <i type="int" name="NSW">     0</i>
   <i type="int" name="IBRION">    -1</i>
   <i type="int" name="MDALGO">     0</i>
   <i type="int" name="ISIF">     2</i>
   <i name="PSTRESS">      0.00000000</i>
   <i name="EDIFFG">     -0.01000000</i>
   <i type="int" name="NFREE">     0</i>
   <i name="POTIM">      0.30000000</i>
   <i name="SMASS">     -3.00000000</i>
   <i name="SCALEE">      1.00000000</i>
  </separator>
  <separator name="ionic md" >
   <i name="TEBEG">      0.00010000</i>
   <i name="TEEND">      0.00010000</i>
   <i type="int" name="NBLOCK">     1</i>
   <i type="int" name="KBLOCK">     1</i>
   <i type="int" name="NPACO">   256</i>
   <i name="APACO">     16.00000000</i>
  </separator>
  <separator name="symmetry" >
   <i type="int" name="ISYM">     2</i>
   <i name="SYMPREC">      0.00001000</i>
  </separator>
  <separator name="dos" >
   <i type="int" name="LORBIT">     0</i>
   <v name="RWIGS">     -1.00000000     -1.00000000</v>
   <i type="int" name="NEDOS">   301</i>
   <i name="EMIN">     10.00000000</i>
   <i name="EMAX">    -10.00000000</i>
   <i name="EFERMI">      0.00000000</i>
  </separator>
  <separator name="writing" >
   <i type="int" name="NWRITE">     0</i>
   <i type="logical" name="LWAVE"> F  </i>
   <i type="logical" name="LDOWNSAMPLE"> F  </i>
   <i type="logical" name="LCHARG"> F  </i>
   <i type="logical" name="LPARD"> F  </i>
   <i type="logical" name="LVTOT"> F  </i>
   <i type="logical" name="LVHAR"> F  </i>
   <i type="logical" name="LELF"> F  </i>
   <i type="logical" name="LOPTICS"> F  </i>
   <v name="STM">      0.00000000      0.00000000      0.00000000      0.00000000      0.00000000      0.00000000      0.00000000</v>
  </separator>
  <separator name="performance" >
   <i type="int" name="NPAR">    16</i>
   <i type="int" name="NSIM">     4</i>
   <i type="int" name="NBLK">    -1</i>
   <i type="logical" name="LPLANE"> T  </i>
   <i type="logical" name="LSCALAPACK"> T  </i>
   <i type="logical" name="LSCAAWARE"> F  </i>
   <i type="logical" name="LSCALU"> F  </i>
   <i type="logical" name="LASYNC"> F  </i>
   <i type="logical" name="LORBITALREAL"> F  </i>
  </separator>
  <separator name="miscellaneous" >
   <i type="int" name="IDIOT">     3</i>
   <i type="int" name="ISPECIAL">     0</i>
   <i type="logical" name="LMUSIC"> F  </i>
   <v name="POMASS">     12.01100000      1.00000000</v>
   <v name="DARWINR">      0.00000000      0.00000000</v>
   <v name="DARWINV">      1.00000000      1.00000000</v>
   <i type="logical" name="LCORR"> T  </i>
  </separator>
  <i type="logical" name="GGA_COMPAT"> T  </i>
  <i type="logical" name="LBERRY"> F  </i>
  <i type="int" name="ICORELEVEL">     0</i>
  <i type="logical" name="LDAU"> F  </i>
  <i type="int" name="I_CONSTRAINED_M">     0</i>
  <separator name="electronic exchange-correlation" >
   <i type="string" name="GGA">PE</i>
   <i type="int" name="VOSKOWN">     0</i>
   <i type="logical" name="LHFCALC"> F  </i>
   <i type="string" name="PRECFOCK"></i>
   <i type="logical" name="LSYMGRAD"> F  </i>
   <i type="logical" name="LHFONE"> F  </i>
   <i type="logical" name="LRHFCALC"> F  </i>
   <i type="logical" name="LTHOMAS"> F  </i>
   <i type="logical" name="LMODELHF"> F  </i>
   <i name="ENCUT4O">     -1.00000000</i>
   <i type="int" name="EXXOEP">     0</i>
   <i type="int" name="FOURORBIT">     0</i>
   <i name="AEXX">      0.00000000</i>
   <i name="HFALPHA">      0.00000000</i>
   <i name="MCALPHA">      0.00000000</i>
   <i name="ALDAX">      1.00000000</i>
   <i name="AGGAX">      1.00000000</i>
   <i name="ALDAC">      1.00000000</i>
   <i name="AGGAC">      1.00000000</i>
   <i type="int" name="NKREDX">     1</i>
   <i type="int" name="NKREDY">     1</i>
   <i type="int" name="NKREDZ">     1</i>
   <i type="logical" name="SHIFTRED"> F  </i>
   <i type="logical" name="ODDONLY"> F  </i>
   <i type="logical" name="EVENONLY"> F  </i>
   <i type="int" name="LMAXFOCK">     0</i>
   <i type="int" name="NMAXFOCKAE">     0</i>
   <i type="logical" name="LFOCKAEDFT"> F  </i>
   <i name="HFSCREEN">      0.00000000</i>
   <i name="HFSCREENC">      0.00000000</i>
   <i type="int" name="NBANDSGWLOW">     0</i>
  </separator>
  <separator name="vdW DFT" >
   <i type="logical" name="LUSE_VDW"> F  </i>
   <i name="Zab_VDW">     -0.84910000</i>
   <i name="PARAM1">      0.12340000</i>
   <i name="PARAM2">      1.00000000</i>
   <i name="PARAM3">      0.00000000</i>
  </separator>
  <separator name="model GW" >
   <i type="int" name="MODEL_GW">     0</i>
   <i name="MODEL_EPS0">     46.36644960</i>
   <i name="MODEL_ALPHA">      1.00000000</i>
  </separator>
  <separator name="linear response parameters" >
   <i type="logical" name="LEPSILON"> F  </i>
   <i type="logical" name="LRPA"> F  </i>
   <i type="logical" name="LNABLA"> F  </i>
   <i type="logical" name="LVEL"> F  </i>
   <i type="int" name="KINTER">     0</i>
   <i name="CSHIFT">      0.10000000</i>
   <i name="OMEGAMAX">     -1.00000000</i>
   <i name="DEG_THRESHOLD">      0.00200000</i>
   <i name="RTIME">     -0.10000000</i>
   <i name="WPLASMAI">      0.00000000</i>
   <v name="DFIELD">      0.00000000      0.00000000      0.00000000</v>
   <v name="WPLASMA">      0.00000000      0.00000000      0.00000000      0.00000000      0.00000000      0.00000000      0.00000000      0.00000000      0.00000000</v>
  </separator>
  <separator name="orbital magnetization" >
   <i type="logical" name="NUCIND"> F  </i>
   <v name="MAGPOS">      0.00000000      0.00000000      0.00000000</v>
   <i type="logical" name="LNICSALL"> T  </i>
   <i type="logical" name="ORBITALMAG"> F  </i>
   <i type="logical" name="LMAGBLOCH"> F  </i>
   <i type="logical" name="LCHIMAG"> F  </i>
   <i type="logical" name="LGAUGE"> T  </i>
   <i type="int" name="MAGATOM">     0</i>
   <v name="MAGDIPOL">      0.00000000      0.00000000      0.00000000</v>
   <v name="AVECCONST">      0.00000000      0.00000000      0.00000000</v>
  </separator>
  <separator name="response functions" >
   <i type="logical" name="LADDER"> F  </i>
   <i type="logical" name="LRPAFORCE"> F  </i>
   <i type="logical" name="LFXC"> F  </i>
   <i type="logical" name="LHARTREE"> T  </i>
   <i type="int" name="IBSE">     0</i>
   <v type="int" name="KPOINT">    -1     0     0     0</v>
   <i type="logical" name="LTCTE"> F  </i>
   <i type="logical" name="LTETE"> F  </i>
   <i type="logical" name="LTRIPLET"> F  </i>
   <i type="logical" name="LFXCEPS"> F  </i>
   <i type="logical" name="LFXHEG"> F  </i>
   <i type="int" name="NATURALO">     2</i>
   <i type="logical" name="L2ORDER"> F  </i>
   <i type="logical" name="LMP2LT"> F  </i>
   <i type="logical" name="LUSEW"> F  </i>
   <i name="ENCUTGW">     -2.00000000</i>
   <i name="ENCUTGWSOFT">     -2.00000000</i>
   <i name="ENCUTLF">     -1.00000000</i>
   <i type="int" name="LMAXMP2">    -1</i>
   <i name="SCISSOR">      0.00000000</i>
   <i type="int" name="NOMEGA">     0</i>
   <i type="int" name="NOMEGAR">     0</i>
   <i type="int" name="NBANDSGW">    -1</i>
   <i type="int" name="NBANDSO">    -1</i>
   <i type="int" name="NBANDSV">    -1</i>
   <i type="int" name="NELM">   200</i>
   <i type="int" name="NELMHF">     1</i>
   <i type="int" name="DIM">     3</i>
   <i type="int" name="ANTIRES">     0</i>
   <i name="OMEGAMAX">    -30.00000000</i>
   <i name="OMEGAMIN">    -30.00000000</i>
   <i name="OMEGATL">   -200.00000000</i>
   <i type="int" name="OMEGAGRID">   140</i>
   <i name="CSHIFT">     -0.10000000</i>
   <i type="logical" name="SELFENERGY"> F  </i>
   <i type="logical" name="LSPECTRAL"> F  </i>
   <i type="logical" name="LSPECTRALGW"> F  </i>
   <i type="logical" name="LSINGLES"> F  </i>
   <i type="logical" name="LFERMIGW"> F  </i>
   <i type="logical" name="ODDONLYGW"> F  </i>
   <i type="logical" name="EVENONLYGW"> F  </i>
   <i type="int" name="NKREDLFX">     1</i>
   <i type="int" name="NKREDLFY">     1</i>
   <i type="int" name="NKREDLFZ">     1</i>
   <i type="int" name="MAXMEM">  2800</i>
   <i type="int" name="TELESCOPE">     0</i>
   <i type="int" name="TAUPAR">     1</i>
   <i type="int" name="OMEGAPAR">    -1</i>
   <i name="LAMBDA">      1.00000000</i>
  </separator>
  <separator name="External order field" >
   <i name="OFIELD_KAPPA">      0.00000000</i>
   <v name="OFIELD_K">      0.00000000      0.00000000      0.00000000</v>
   <i name="OFIELD_Q6_NEAR">      0.00000000</i>
   <i name="OFIELD_Q6_FAR">      0.00000000</i>
   <i name="OFIELD_A">      0.00000000</i>
  </separator>
  <separator name="solvation model" >
   <i type="logical" name="LSOL"> F  </i>
  </separator>
 </parameters>
 <atominfo>
  <atoms>     100 </atoms>
  <types>       2 </types>
  <array name="atoms" >
   <dimension dim="1">ion</dimension>
   <field type="string">element</field>
   <field type="int">atomtype</field>
   <set>
    <rc><c>C </c><c>   1</c></rc>
    <rc><c>C </c><c>   1</c></rc>
    <rc><c>C </c><c>   1</c></rc>
    <rc><c>C </c><c>   1</c></rc>
    <rc><c>C </c><c>   1</c></rc>
    <rc><c>C </c><c>   1</c></rc>
    <rc><c>C </c><c>   1</c></rc>
    <rc><c>C </c><c>   1</c></rc>
    <rc><c>C </c><c>   1</c></rc>
    <rc><c>C </c><c>   1</c></rc>
    <rc><c>C </c><c>   1</c></rc>
    <rc><c>C </c><c>   1</c></rc>
    <rc><c>C </c><c>   1</c></rc>
    <rc><c>C </c><c>   1</c></rc>
    <rc><c>C </c><c>   1</c></rc>
    <rc><c>C </c><c>   1</c></rc>
    <rc><c>C </c><c>   1</c></rc>
    <rc><c>C </c><c>   1</c></rc>
    <rc><c>C </c><c>   1</c></rc>
    <rc><c>C </c><c>   1</c></rc>
    <rc><c>C </c><c>   1</c></rc>
    <rc><c>C </c><c>   1</c></rc>
    <rc><c>C </c><c>   1</c></rc>
    <rc><c>C </c><c>   1</c></rc>
    <rc><c>C </c><c>   1</c></rc>
    <rc><c>C </c><c>   1</c></rc>
    <rc><c>C </c><c>   1</c></rc>
    <rc><c>C </c><c>   1</c></rc>
    <rc><c>C </c><c>   1</c></rc>
    <rc><c>C </c><c>   1</c></rc>
    <rc><c>C </c><c>   1</c></rc>
    <rc><c>C </c><c>   1</c></rc>
    <rc><c>C </c><c>   1</c></rc>
    <rc><c>C </c><c>   1</c></rc>
    <rc><c>C </c><c>   1</c></rc>
    <rc><c>C </c><c>   1</c></rc>
    <rc><c>C </c><c>   1</c></rc>
    <rc><c>C </c><c>   1</c></rc>
    <rc><c>C </c><c>   1</c></rc>
    <rc><c>C </c><c>   1</c></rc>
    <rc><c>C </c><c>   1</c></rc>
    <rc><c>C </c><c>   1</c></rc>
    <rc><c>C </c><c>   1</c></rc>
    <rc><c>C </c><c>   1</c></rc>
    <rc><c>C </c><c>   1</c></rc>
    <rc><c>C </c><c>   1</c></rc>
    <rc><c>C </c><c>   1</c></rc>
    <rc><c>C </c><c>   1</c></rc>
    <rc><c>C </c><c>   1</c></rc>
    <rc><c>C </c><c>   1</c></rc>
    <rc><c>C </c><c>   1</c></rc>
    <rc><c>C </c><c>   1</c></rc>
    <rc><c>C </c><c>   1</c></rc>
    <rc><c>C </c><c>   1</c></rc>
    <rc><c>C </c><c>   1</c></rc>
    <rc><c>C </c><c>   1</c></rc>
    <rc><c>C </c><c>   1</c></rc>
    <rc><c>C </c><c>   1</c></rc>
    <rc><c>C </c><c>   1</c></rc>
    <rc><c>C </c><c>   1</c></rc>
    <rc><c>C </c><c>   1</c></rc>
    <rc><c>C </c><c>   1</c></rc>
    <rc><c>C </c><c>   1</c></rc>
    <rc><c>C </c><c>   1</c></rc>
    <rc><c>H </c><c>   2</c></rc>
    <rc><c>H </c><c>   2</c></rc>
    <rc><c>H </c><c>   2</c></rc>
    <rc><c>H </c><c>   2</c></rc>
    <rc><c>H </c><c>   2</c></rc>
    <rc><c>H </c><c>   2</c></rc>
    <rc><c>H </c><c>   2</c></rc>
    <rc><c>H </c><c>   2</c></rc>
    <rc><c>H </c><c>   2</c></rc>
    <rc><c>H </c><c>   2</c></rc>
    <rc><c>H </c><c>   2</c></rc>
    <rc><c>H </c><c>   2</c></rc>
    <rc><c>H </c><c>   2</c></rc>
    <rc><c>H </c><c>   2</c></rc>
    <rc><c>H </c><c>   2</c></rc>
    <rc><c>H </c><c>   2</c></rc>
    <rc><c>H </c><c>   2</c></rc>
    <rc><c>H </c><c>   2</c></rc>
    <rc><c>H </c><c>   2</c></rc>
    <rc><c>H </c><c>   2</c></rc>
    <rc><c>H </c><c>   2</c></rc>
    <rc><c>H </c><c>   2</c></rc>
    <rc><c>H </c><c>   2</c></rc>
    <rc><c>H </c><c>   2</c></rc>
    <rc><c>H </c><c>   2</c></rc>
    <rc><c>H </c><c>   2</c></rc>
    <rc><c>H </c><c>   2</c></rc>
    <rc><c>H </c><c>   2</c></rc>
    <rc><c>H </c><c>   2</c></rc>
    <rc><c>H </c><c>   2</c></rc>
    <rc><c>H </c><c>   2</c></rc>
    <rc><c>H </c><c>   2</c></rc>
    <rc><c>H </c><c>   2</c></rc>
    <rc><c>H </c><c>   2</c></rc>
    <rc><c>H </c><c>   2</c></rc>
    <rc><c>H </c><c>   2</c></rc>
   </set>
  </array>
  <array name="atomtypes" >
   <dimension dim="1">type</dimension>
   <field type="int">atomspertype</field>
   <field type="string">element</field>
   <field>mass</field>
   <field>valence</field>
   <field type="string">pseudopotential</field>
   <set>
    <rc><c>  64</c><c>C </c><c>     12.01100000</c><c>      4.00000000</c><c>  PAW_PBE C 08Apr2002                   </c></rc>
    <rc><c>  36</c><c>H </c><c>      1.00000000</c><c>      1.00000000</c><c>  PAW_PBE H 15Jun2001                   </c></rc>
   </set>
  </array>
 </atominfo>
 <structure name="initialpos" >
  <crystal>
   <varray name="basis" >
    <v>      14.69972573      -0.00561150       0.00000000 </v>
    <v>       0.09601441      26.28528915       0.00000000 </v>
    <v>       0.00025525       0.00015594      20.00000000 </v>
   </varray>
   <i name="volume">   7727.74160011 </i>
   <varray name="rec_basis" >
    <v>       0.06802839      -0.00024849      -0.00000087 </v>
    <v>       0.00001452       0.03804404      -0.00000030 </v>
    <v>       0.00000000       0.00000000       0.05000000 </v>
   </varray>
  </crystal>
  <varray name="positions" >
   <v>       0.09196496       0.08276988       0.48802498 </v>
   <v>       0.09300360       0.02876360       0.48379104 </v>
   <v>       0.17526772       0.00013621       0.47593245 </v>
   <v>       0.09277730       0.86568921       0.48876888 </v>
   <v>       0.09342454       0.91968510       0.48417722 </v>
   <v>       0.17548458       0.94817960       0.47621325 </v>
   <v>       0.18989367       0.79172200       0.45372504 </v>
   <v>       0.18850366       0.15611019       0.45103301 </v>
   <v>       0.00919066       0.84039119       0.49011277 </v>
   <v>       0.00859439       0.00158880       0.48407577 </v>
   <v>       0.92398166       0.02889475       0.48422856 </v>
   <v>       0.92466756       0.08289363       0.48882322 </v>
   <v>       0.00825342       0.10818505       0.49017852 </v>
   <v>       0.84190961       0.00040494       0.47631648 </v>
   <v>       0.00880134       0.94698251       0.48406419 </v>
   <v>       0.92439590       0.91980636       0.48380257 </v>
   <v>       0.92546435       0.86579662       0.48798725 </v>
   <v>       0.84212959       0.94844633       0.47600769 </v>
   <v>       0.51022357       0.66707255       0.49588768 </v>
   <v>       0.59205462       0.69457139       0.49541792 </v>
   <v>       0.51036296       0.61073098       0.49401421 </v>
   <v>       0.43606934       0.58349962       0.46796242 </v>
   <v>       0.43499938       0.53055233       0.46787156 </v>
   <v>       0.50922268       0.50237436       0.49242584 </v>
   <v>       0.26934329       0.76284752       0.45767190 </v>
   <v>       0.82893838       0.79243154       0.45104282 </v>
   <v>       0.74971884       0.76357512       0.45429218 </v>
   <v>       0.50721038       0.28145850       0.49583709 </v>
   <v>       0.42539668       0.25394432       0.49536732 </v>
   <v>       0.50706357       0.33779949       0.49397632 </v>
   <v>       0.58139545       0.36503480       0.46798309 </v>
   <v>       0.58248677       0.41797948       0.46792304 </v>
   <v>       0.50822023       0.44615505       0.49241413 </v>
   <v>       0.74814965       0.18573658       0.45764866 </v>
   <v>       0.82762592       0.15687937       0.45375932 </v>
   <v>       0.26775377       0.18493983       0.45422065 </v>
   <v>       0.17744490       0.83521812       0.49372307 </v>
   <v>       0.17651087       0.11311419       0.49193703 </v>
   <v>       0.42667010       0.74770423       0.50223741 </v>
   <v>       0.42803551       0.69442329       0.49909474 </v>
   <v>       0.59279186       0.74779751       0.49989996 </v>
   <v>       0.50957037       0.77391044       0.50371929 </v>
   <v>       0.58427591       0.52937358       0.51737169 </v>
   <v>       0.58435681       0.58232467       0.51880783 </v>
   <v>       0.33989375       0.77637399       0.50159050 </v>
   <v>       0.24696016       0.84771607       0.53921436 </v>
   <v>       0.32659843       0.81905357       0.54284108 </v>
   <v>       0.67902376       0.77666358       0.49843229 </v>
   <v>       0.69179359       0.81896177       0.54040103 </v>
   <v>       0.77114008       0.84759999       0.53742296 </v>
   <v>       0.84093844       0.83543459       0.49192743 </v>
   <v>       0.59078714       0.20084048       0.50216655 </v>
   <v>       0.58940663       0.25411991       0.49905254 </v>
   <v>       0.42467992       0.20071396       0.49981585 </v>
   <v>       0.50791127       0.17461043       0.50363989 </v>
   <v>       0.43312541       0.41915150       0.51728905 </v>
   <v>       0.43303774       0.36620023       0.51872326 </v>
   <v>       0.67758094       0.17220018       0.50154592 </v>
   <v>       0.84002723       0.11337947       0.49375943 </v>
   <v>       0.77050611       0.10088365       0.53923830 </v>
   <v>       0.69086349       0.12953935       0.54282522 </v>
   <v>       0.33846046       0.17184789       0.49834637 </v>
   <v>       0.32568798       0.12957067       0.54034925 </v>
   <v>       0.24633936       0.10093629       0.53740094 </v>
   <v>       0.13740765       0.78138839       0.41762178 </v>
   <v>       0.13569787       0.16611301       0.41492754 </v>
   <v>       0.77847323       0.92812478       0.46856431 </v>
   <v>       0.77806156       0.02083874       0.46916464 </v>
   <v>       0.23932281       0.92774790       0.46899323 </v>
   <v>       0.23892187       0.02045939       0.46846009 </v>
   <v>       0.27858984       0.73033434       0.42437535 </v>
   <v>       0.74099822       0.73137545       0.42044871 </v>
   <v>       0.88168285       0.78244543       0.41487982 </v>
   <v>       0.37680418       0.51047404       0.44673670 </v>
   <v>       0.37868972       0.60405253       0.44619076 </v>
   <v>       0.65674566       0.67431434       0.49176936 </v>
   <v>       0.88015795       0.16721576       0.41769302 </v>
   <v>       0.73890096       0.21823943       0.42433367 </v>
   <v>       0.27649986       0.21711312       0.42033900 </v>
   <v>       0.64075602       0.43804515       0.44687387 </v>
   <v>       0.63881122       0.34448605       0.44624838 </v>
   <v>       0.36070307       0.27419991       0.49175175 </v>
   <v>       0.00927042       0.79909562       0.49595475 </v>
   <v>       0.00820182       0.14947931       0.49605220 </v>
   <v>       0.23762067       0.88002960       0.57277327 </v>
   <v>       0.37905032       0.82934166       0.57898998 </v>
   <v>       0.63920823       0.82890046       0.57670651 </v>
   <v>       0.78012258       0.87958380       0.57151908 </v>
   <v>       0.64204792       0.60193340       0.54128567 </v>
   <v>       0.64201507       0.50838582       0.53800170 </v>
   <v>       0.36363908       0.67400666       0.50134640 </v>
   <v>       0.50923667       0.81542220       0.50422369 </v>
   <v>       0.77984821       0.06857969       0.57281456 </v>
   <v>       0.63839054       0.11927042       0.57896520 </v>
   <v>       0.37827058       0.11964577       0.57665956 </v>
   <v>       0.23737043       0.06896593       0.57152307 </v>
   <v>       0.37531687       0.34659172       0.54116654 </v>
   <v>       0.37535118       0.44013676       0.53787053 </v>
   <v>       0.65380652       0.27453404       0.50132827 </v>
   <v>       0.50830324       0.13309662       0.50413892 </v>
  </varray>
 </structure>
 <calculation>
  <scstep>
   <time name="dav">  299.47  302.52</time>
   <time name="total">  299.60  302.65</time>
   <energy>
    <i name="alphaZ">     52.97776130 </i>
    <i name="ewald">  32030.20755138 </i>
    <i name="hartreedc"> -40152.10050539 </i>
    <i name="XCdc">    974.49297290 </i>
    <i name="pawpsdc">  26629.16334556 </i>
    <i name="pawaedc"> -26673.84501791 </i>
    <i name="eentropy">     -0.00000000 </i>
    <i name="bandstr">  -3436.88560903 </i>
    <i name="atom">   9867.01046264 </i>
    <i name="e_fr_energy">   -708.97903855 </i>
    <i name="e_wo_entrp">   -708.97903855 </i>
    <i name="e_0_energy">   -708.97903855 </i>
   </energy>
  </scstep>
  <scstep>
   <time name="dav">  339.73  343.13</time>
   <time name="total">  339.73  343.13</time>
   <energy>
    <i name="e_fr_energy">   -709.95938065 </i>
    <i name="e_wo_entrp">   -709.95938065 </i>
    <i name="e_0_energy">   -709.95938065 </i>
   </energy>
  </scstep>
  <scstep>
   <time name="dav">  357.01  360.73</time>
   <time name="total">  357.01  360.73</time>
   <energy>
    <i name="e_fr_energy">   -709.98039553 </i>
    <i name="e_wo_entrp">   -709.98039553 </i>
    <i name="e_0_energy">   -709.98039553 </i>
   </energy>
  </scstep>
  <scstep>
   <time name="dav">  344.27  347.79</time>
   <time name="total">  344.27  347.79</time>
   <energy>
    <i name="e_fr_energy">   -709.98088214 </i>
    <i name="e_wo_entrp">   -709.98088214 </i>
    <i name="e_0_energy">   -709.98088214 </i>
   </energy>
  </scstep>
  <scstep>
   <time name="dav">  312.82  316.01</time>
   <time name="total">  312.82  316.02</time>
   <energy>
    <i name="e_fr_energy">   -709.98089804 </i>
    <i name="e_wo_entrp">   -709.98089804 </i>
    <i name="e_0_energy">   -709.98089804 </i>
   </energy>
  </scstep>
  <scstep>
   <time name="dav">  262.07  264.68</time>
   <time name="total">  262.07  264.68</time>
   <energy>
    <i name="alphaZ">     52.97776130 </i>
    <i name="ewald">  32030.20755138 </i>
    <i name="hartreedc"> -40152.10050539 </i>
    <i name="XCdc">    974.49297290 </i>
    <i name="pawpsdc">  26629.16334556 </i>
    <i name="pawaedc"> -26673.84501791 </i>
    <i name="eentropy">     -0.00000000 </i>
    <i name="bandstr">  -3437.88746911 </i>
    <i name="atom">   9867.01046264 </i>
    <i name="e_fr_energy">   -709.98089863 </i>
    <i name="e_wo_entrp">   -709.98089863 </i>
    <i name="e_0_energy">   -709.98089863 </i>
   </energy>
  </scstep>
  <structure>
   <crystal>
    <varray name="basis" >
     <v>      14.69972573      -0.00561150       0.00000000 </v>
     <v>       0.09601441      26.28528915       0.00000000 </v>
     <v>       0.00025525       0.00015594      20.00000000 </v>
    </varray>
    <i name="volume">   7727.74160011 </i>
    <varray name="rec_basis" >
     <v>       0.06802839      -0.00024849      -0.00000087 </v>
     <v>       0.00001452       0.03804404      -0.00000030 </v>
     <v>       0.00000000       0.00000000       0.05000000 </v>
    </varray>
   </crystal>
   <varray name="positions" >
    <v>       0.09196496       0.08276988       0.48802498 </v>
    <v>       0.09300360       0.02876360       0.48379104 </v>
    <v>       0.17526772       0.00013621       0.47593245 </v>
    <v>       0.09277730       0.86568921       0.48876888 </v>
    <v>       0.09342454       0.91968510       0.48417722 </v>
    <v>       0.17548458       0.94817960       0.47621325 </v>
    <v>       0.18989367       0.79172200       0.45372504 </v>
    <v>       0.18850366       0.15611019       0.45103301 </v>
    <v>       0.00919066       0.84039119       0.49011277 </v>
    <v>       0.00859439       0.00158880       0.48407577 </v>
    <v>       0.92398166       0.02889475       0.48422856 </v>
    <v>       0.92466756       0.08289363       0.48882322 </v>
    <v>       0.00825342       0.10818505       0.49017852 </v>
    <v>       0.84190961       0.00040494       0.47631648 </v>
    <v>       0.00880134       0.94698251       0.48406419 </v>
    <v>       0.92439590       0.91980636       0.48380257 </v>
    <v>       0.92546435       0.86579662       0.48798725 </v>
    <v>       0.84212959       0.94844633       0.47600769 </v>
    <v>       0.51022357       0.66707255       0.49588768 </v>
    <v>       0.59205462       0.69457139       0.49541792 </v>
    <v>       0.51036296       0.61073098       0.49401421 </v>
    <v>       0.43606934       0.58349962       0.46796242 </v>
    <v>       0.43499938       0.53055233       0.46787156 </v>
    <v>       0.50922268       0.50237436       0.49242584 </v>
    <v>       0.26934329       0.76284752       0.45767190 </v>
    <v>       0.82893838       0.79243154       0.45104282 </v>
    <v>       0.74971884       0.76357512       0.45429218 </v>
    <v>       0.50721038       0.28145850       0.49583709 </v>
    <v>       0.42539668       0.25394432       0.49536732 </v>
    <v>       0.50706357       0.33779949       0.49397632 </v>
    <v>       0.58139545       0.36503480       0.46798309 </v>
    <v>       0.58248677       0.41797948       0.46792304 </v>
    <v>       0.50822023       0.44615505       0.49241413 </v>
    <v>       0.74814965       0.18573658       0.45764866 </v>
    <v>       0.82762592       0.15687937       0.45375932 </v>
    <v>       0.26775377       0.18493983       0.45422065 </v>
    <v>       0.17744490       0.83521812       0.49372307 </v>
    <v>       0.17651087       0.11311419       0.49193703 </v>
    <v>       0.42667010       0.74770423       0.50223741 </v>
    <v>       0.42803551       0.69442329       0.49909474 </v>
    <v>       0.59279186       0.74779751       0.49989996 </v>
    <v>       0.50957037       0.77391044       0.50371929 </v>
    <v>       0.58427591       0.52937358       0.51737169 </v>
    <v>       0.58435681       0.58232467       0.51880783 </v>
    <v>       0.33989375       0.77637399       0.50159050 </v>
    <v>       0.24696016       0.84771607       0.53921436 </v>
    <v>       0.32659843       0.81905357       0.54284108 </v>
    <v>       0.67902376       0.77666358       0.49843229 </v>
    <v>       0.69179359       0.81896177       0.54040103 </v>
    <v>       0.77114008       0.84759999       0.53742296 </v>
    <v>       0.84093844       0.83543459       0.49192743 </v>
    <v>       0.59078714       0.20084048       0.50216655 </v>
    <v>       0.58940663       0.25411991       0.49905254 </v>
    <v>       0.42467992       0.20071396       0.49981585 </v>
    <v>       0.50791127       0.17461043       0.50363989 </v>
    <v>       0.43312541       0.41915150       0.51728905 </v>
    <v>       0.43303774       0.36620023       0.51872326 </v>
    <v>       0.67758094       0.17220018       0.50154592 </v>
    <v>       0.84002723       0.11337947       0.49375943 </v>
    <v>       0.77050611       0.10088365       0.53923830 </v>
    <v>       0.69086349       0.12953935       0.54282522 </v>
    <v>       0.33846046       0.17184789       0.49834637 </v>
    <v>       0.32568798       0.12957067       0.54034925 </v>
    <v>       0.24633936       0.10093629       0.53740094 </v>
    <v>       0.13740765       0.78138839       0.41762178 </v>
    <v>       0.13569787       0.16611301       0.41492754 </v>
    <v>       0.77847323       0.92812478       0.46856431 </v>
    <v>       0.77806156       0.02083874       0.46916464 </v>
    <v>       0.23932281       0.92774790       0.46899323 </v>
    <v>       0.23892187       0.02045939       0.46846009 </v>
    <v>       0.27858984       0.73033434       0.42437535 </v>
    <v>       0.74099822       0.73137545       0.42044871 </v>
    <v>       0.88168285       0.78244543       0.41487982 </v>
    <v>       0.37680418       0.51047404       0.44673670 </v>
    <v>       0.37868972       0.60405253       0.44619076 </v>
    <v>       0.65674566       0.67431434       0.49176936 </v>
    <v>       0.88015795       0.16721576       0.41769302 </v>
    <v>       0.73890096       0.21823943       0.42433367 </v>
    <v>       0.27649986       0.21711312       0.42033900 </v>
    <v>       0.64075602       0.43804515       0.44687387 </v>
    <v>       0.63881122       0.34448605       0.44624838 </v>
    <v>       0.36070307       0.27419991       0.49175175 </v>
    <v>       0.00927042       0.79909562       0.49595475 </v>
    <v>       0.00820182       0.14947931       0.49605220 </v>
    <v>       0.23762067       0.88002960       0.57277327 </v>
    <v>       0.37905032       0.82934166       0.57898998 </v>
    <v>       0.63920823       0.82890046       0.57670651 </v>
    <v>       0.78012258       0.87958380       0.57151908 </v>
    <v>       0.64204792       0.60193340       0.54128567 </v>
    <v>       0.64201507       0.50838582       0.53800170 </v>
    <v>       0.36363908       0.67400666       0.50134640 </v>
    <v>       0.50923667       0.81542220       0.50422369 </v>
    <v>       0.77984821       0.06857969       0.57281456 </v>
    <v>       0.63839054       0.11927042       0.57896520 </v>
    <v>       0.37827058       0.11964577       0.57665956 </v>
    <v>       0.23737043       0.06896593       0.57152307 </v>
    <v>       0.37531687       0.34659172       0.54116654 </v>
    <v>       0.37535118       0.44013676       0.53787053 </v>
    <v>       0.65380652       0.27453404       0.50132827 </v>
    <v>       0.50830324       0.13309662       0.50413892 </v>
   </varray>
  </structure>
  <varray name="forces" >
   <v>       0.00401899       0.00592861      -0.00389566 </v>
   <v>      -0.00042816       0.00490254       0.00262719 </v>
   <v>      -0.00039397       0.00162546       0.00234078 </v>
   <v>       0.00332980      -0.00637329      -0.00151558 </v>
   <v>       0.00003374      -0.00513430       0.00037396 </v>
   <v>       0.00055519      -0.00154862       0.00513179 </v>
   <v>       0.00005175       0.00000311       0.00296315 </v>
   <v>      -0.00299735      -0.00217329       0.00252836 </v>
   <v>       0.00247491      -0.00095529      -0.00535178 </v>
   <v>      -0.00054162       0.00440287       0.00359152 </v>
   <v>       0.00267748       0.00590616       0.00224339 </v>
   <v>      -0.00549907       0.00661616      -0.00098637 </v>
   <v>       0.00059161       0.00079541      -0.00460555 </v>
   <v>       0.00116966       0.00179572       0.00424185 </v>
   <v>       0.00069242      -0.00122717       0.00464948 </v>
   <v>       0.00094652      -0.00387076       0.00206461 </v>
   <v>      -0.00595116      -0.00520851      -0.00351560 </v>
   <v>       0.00154681      -0.00271030       0.00397617 </v>
   <v>      -0.00234008       0.00157693      -0.00354814 </v>
   <v>      -0.00092718      -0.00178477      -0.00040184 </v>
   <v>       0.00028994      -0.00099374       0.00049819 </v>
   <v>      -0.00238902      -0.00463990       0.00210127 </v>
   <v>      -0.00394326      -0.00506753      -0.00104027 </v>
   <v>      -0.00008004      -0.00134098      -0.00380403 </v>
   <v>      -0.00460823       0.00328358      -0.00165010 </v>
   <v>       0.00236669       0.00063340       0.00106652 </v>
   <v>       0.00119820       0.00015044      -0.00253866 </v>
   <v>       0.00282607       0.00051332      -0.00248854 </v>
   <v>      -0.00012435      -0.00052187      -0.00186989 </v>
   <v>      -0.00010648       0.00151621      -0.00045065 </v>
   <v>       0.00315610       0.00427978       0.00217774 </v>
   <v>       0.00363414       0.00455404      -0.00177491 </v>
   <v>      -0.00057045      -0.00002875      -0.00340850 </v>
   <v>       0.00641251      -0.00342194      -0.00109263 </v>
   <v>       0.00007018      -0.00065689       0.00213312 </v>
   <v>      -0.00048776      -0.00142697      -0.00249308 </v>
   <v>       0.00219860       0.00674903      -0.00187305 </v>
   <v>       0.00091722      -0.00801898      -0.00168592 </v>
   <v>      -0.00616586       0.00369806      -0.00427097 </v>
   <v>       0.00436032       0.00073387       0.00149797 </v>
   <v>       0.00517486       0.00461095      -0.00609326 </v>
   <v>      -0.00068999       0.00270044       0.00019227 </v>
   <v>       0.00745243      -0.00511296       0.00041084 </v>
   <v>      -0.00144584      -0.00031111      -0.00037250 </v>
   <v>      -0.00514520       0.00031171       0.00223195 </v>
   <v>      -0.00032146      -0.00100497       0.00391037 </v>
   <v>       0.00041201       0.00368044       0.00017587 </v>
   <v>       0.00518755      -0.00147834       0.00043893 </v>
   <v>      -0.00054582       0.00177747       0.00037240 </v>
   <v>      -0.00187574      -0.00208953       0.00347487 </v>
   <v>      -0.00131026       0.00789297      -0.00051064 </v>
   <v>       0.00584333      -0.00546160      -0.00179807 </v>
   <v>      -0.00195483      -0.00052351      -0.00013495 </v>
   <v>      -0.00380577      -0.00495863      -0.00466968 </v>
   <v>       0.00119991      -0.00177628      -0.00072344 </v>
   <v>      -0.00746957       0.00548363      -0.00053284 </v>
   <v>       0.00116978       0.00090719       0.00035129 </v>
   <v>       0.00507861       0.00011860       0.00272724 </v>
   <v>      -0.00030214      -0.00632798      -0.00135370 </v>
   <v>      -0.00204938      -0.00029773       0.00534463 </v>
   <v>      -0.00062214      -0.00412635       0.00115792 </v>
   <v>      -0.00634148       0.00390484       0.00266826 </v>
   <v>       0.00103439      -0.00197536      -0.00019649 </v>
   <v>      -0.00030804       0.00199988       0.00575312 </v>
   <v>       0.00335845       0.00321921       0.00057461 </v>
   <v>       0.00421865      -0.00209687       0.00090613 </v>
   <v>      -0.00045377      -0.00315347      -0.00137787 </v>
   <v>       0.00189067       0.00377825      -0.00141806 </v>
   <v>      -0.00329002      -0.00422658       0.00011615 </v>
   <v>      -0.00235826       0.00236292      -0.00113660 </v>
   <v>      -0.00153261       0.00023988      -0.00012348 </v>
   <v>       0.00261412       0.00244396      -0.00092184 </v>
   <v>      -0.00287370       0.00104573       0.00207649 </v>
   <v>       0.00303209       0.00269313       0.00502020 </v>
   <v>       0.00127585       0.00053726       0.00446588 </v>
   <v>       0.00077602       0.00123513      -0.00551183 </v>
   <v>      -0.00289850      -0.00297894       0.00077841 </v>
   <v>       0.00247251      -0.00035157       0.00056298 </v>
   <v>      -0.00273471      -0.00053240       0.00015106 </v>
   <v>      -0.00449365      -0.00275943       0.00416240 </v>
   <v>      -0.00038056      -0.00087677       0.00498169 </v>
   <v>      -0.00181515      -0.00200835      -0.00560469 </v>
   <v>      -0.00041316       0.00498460       0.00465105 </v>
   <v>       0.00029365      -0.00646455       0.00475008 </v>
   <v>      -0.00475230       0.00016143      -0.00165701 </v>
   <v>      -0.00217226       0.00135614      -0.00117079 </v>
   <v>       0.00342291      -0.00157067       0.00013089 </v>
   <v>       0.00218948      -0.00088162       0.00242632 </v>
   <v>       0.00160939      -0.00153600       0.00007448 </v>
   <v>      -0.00413885      -0.00069944      -0.00454017 </v>
   <v>      -0.00137012       0.00070800      -0.00018775 </v>
   <v>      -0.00074734      -0.00307190      -0.00440033 </v>
   <v>       0.00518647       0.00049879      -0.00173122 </v>
   <v>       0.00287752      -0.00257664      -0.00064102 </v>
   <v>      -0.00207183       0.00131592       0.00047652 </v>
   <v>      -0.00270501       0.00145063       0.00045402 </v>
   <v>      -0.00188224       0.00114850      -0.00016679 </v>
   <v>       0.00333927       0.00055791      -0.00562372 </v>
   <v>       0.00009736       0.00058341      -0.00045464 </v>
   <v>      -0.00190041       0.00495973      -0.00486127 </v>
  </varray>
  <varray name="stress" >
   <v>       0.00312882      -0.00033207      -0.00008059 </v>
   <v>      -0.00033207       0.02377695       0.00043295 </v>
   <v>      -0.00008059       0.00043295      -0.22182773 </v>
  </varray>
  <energy>
   <i name="e_fr_energy">   -712.17442485 </i>
   <i name="e_wo_entrp">   -712.17442485 </i>
   <i name="e_0_energy">     -0.00000000 </i>
  </energy>
  <time name="totalsc"> 2235.89 2259.44</time>
  <eigenvalues>
   <array>
    <dimension dim="1">band</dimension>
    <dimension dim="2">kpoint</dimension>
    <dimension dim="3">spin</dimension>
    <field>eigene</field>
    <field>occ</field>
    <set>
     <set comment="spin 1">
      <set comment="kpoint 1">
       <r>  -21.7644    1.0000 </r>
       <r>  -21.3870    1.0000 </r>
       <r>  -21.3619    1.0000 </r>
       <r>  -21.0889    1.0000 </r>
       <r>  -21.0842    1.0000 </r>
       <r>  -21.0116    1.0000 </r>
       <r>  -20.9889    1.0000 </r>
       <r>  -20.6487    1.0000 </r>
       <r>  -20.5879    1.0000 </r>
       <r>  -20.1901    1.0000 </r>
       <r>  -20.1191    1.0000 </r>
       <r>  -19.6107    1.0000 </r>
       <r>  -19.4997    1.0000 </r>
       <r>  -19.1986    1.0000 </r>
       <r>  -19.1581    1.0000 </r>
       <r>  -18.8286    1.0000 </r>
       <r>  -18.3606    1.0000 </r>
       <r>  -18.1854    1.0000 </r>
       <r>  -18.0533    1.0000 </r>
       <r>  -18.0456    1.0000 </r>
       <r>  -18.0038    1.0000 </r>
       <r>  -17.9673    1.0000 </r>
       <r>  -17.9651    1.0000 </r>
       <r>  -17.9598    1.0000 </r>
       <r>  -17.8695    1.0000 </r>
       <r>  -17.7729    1.0000 </r>
       <r>  -17.7646    1.0000 </r>
       <r>  -17.3204    1.0000 </r>
       <r>  -17.2340    1.0000 </r>
       <r>  -17.0667    1.0000 </r>
       <r>  -16.8109    1.0000 </r>
       <r>  -16.4868    1.0000 </r>
       <r>  -15.6327    1.0000 </r>
       <r>  -15.4339    1.0000 </r>
       <r>  -15.3067    1.0000 </r>
       <r>  -15.2061    1.0000 </r>
       <r>  -15.1323    1.0000 </r>
       <r>  -14.7063    1.0000 </r>
       <r>  -14.6802    1.0000 </r>
       <r>  -14.6052    1.0000 </r>
       <r>  -14.5347    1.0000 </r>
       <r>  -14.4769    1.0000 </r>
       <r>  -14.4243    1.0000 </r>
       <r>  -14.2599    1.0000 </r>
       <r>  -14.2501    1.0000 </r>
       <r>  -14.0441    1.0000 </r>
       <r>  -14.0074    1.0000 </r>
       <r>  -13.9396    1.0000 </r>
       <r>  -13.5147    1.0000 </r>
       <r>  -13.3700    1.0000 </r>
       <r>  -13.3526    1.0000 </r>
       <r>  -13.2898    1.0000 </r>
       <r>  -12.7944    1.0000 </r>
       <r>  -12.7897    1.0000 </r>
       <r>  -12.6121    1.0000 </r>
       <r>  -12.4500    1.0000 </r>
       <r>  -12.1998    1.0000 </r>
       <r>  -12.1472    1.0000 </r>
       <r>  -11.8993    1.0000 </r>
       <r>  -11.6558    1.0000 </r>
       <r>  -11.5395    1.0000 </r>
       <r>  -11.4600    1.0000 </r>
       <r>  -11.3085    1.0000 </r>
       <r>  -11.2737    1.0000 </r>
       <r>  -11.2717    1.0000 </r>
       <r>  -11.1808    1.0000 </r>
       <r>  -10.9921    1.0000 </r>
       <r>  -10.8616    1.0000 </r>
       <r>  -10.7402    1.0000 </r>
       <r>  -10.7082    1.0000 </r>
       <r>  -10.6080    1.0000 </r>
       <r>  -10.5791    1.0000 </r>
       <r>  -10.5755    1.0000 </r>
       <r>  -10.4423    1.0000 </r>
       <r>  -10.4061    1.0000 </r>
       <r>  -10.3791    1.0000 </r>
       <r>  -10.1896    1.0000 </r>
       <r>  -10.1225    1.0000 </r>
       <r>  -10.0583    1.0000 </r>
       <r>   -9.9748    1.0000 </r>
       <r>   -9.9205    1.0000 </r>
       <r>   -9.9082    1.0000 </r>
       <r>   -9.8358    1.0000 </r>
       <r>   -9.7946    1.0000 </r>
       <r>   -9.7328    1.0000 </r>
       <r>   -9.6953    1.0000 </r>
       <r>   -9.6725    1.0000 </r>
       <r>   -9.6716    1.0000 </r>
       <r>   -9.6562    1.0000 </r>
       <r>   -9.6502    1.0000 </r>
       <r>   -9.6295    1.0000 </r>
       <r>   -9.4276    1.0000 </r>
       <r>   -9.2960    1.0000 </r>
       <r>   -9.2932    1.0000 </r>
       <r>   -9.1528    1.0000 </r>
       <r>   -9.0070    1.0000 </r>
       <r>   -8.9012    1.0000 </r>
       <r>   -8.8469    1.0000 </r>
       <r>   -8.7897    1.0000 </r>
       <r>   -8.7495    1.0000 </r>
       <r>   -8.6991    1.0000 </r>
       <r>   -8.5763    1.0000 </r>
       <r>   -8.5713    1.0000 </r>
       <r>   -8.4555    1.0000 </r>
       <r>   -8.4411    1.0000 </r>
       <r>   -8.3849    1.0000 </r>
       <r>   -8.3510    1.0000 </r>
       <r>   -8.3093    1.0000 </r>
       <r>   -8.2441    1.0000 </r>
       <r>   -8.1231    1.0000 </r>
       <r>   -8.0814    1.0000 </r>
       <r>   -7.9498    1.0000 </r>
       <r>   -7.8992    1.0000 </r>
       <r>   -7.8213    1.0000 </r>
       <r>   -7.7987    1.0000 </r>
       <r>   -7.7500    1.0000 </r>
       <r>   -7.7341    1.0000 </r>
       <r>   -7.6939    1.0000 </r>
       <r>   -7.6506    1.0000 </r>
       <r>   -7.4948    1.0000 </r>
       <r>   -7.4318    1.0000 </r>
       <r>   -7.4055    1.0000 </r>
       <r>   -7.3397    1.0000 </r>
       <r>   -7.2859    1.0000 </r>
       <r>   -7.0008    1.0000 </r>
       <r>   -6.8786    1.0000 </r>
       <r>   -6.6903    1.0000 </r>
       <r>   -6.6470    1.0000 </r>
       <r>   -6.5136    1.0000 </r>
       <r>   -6.4292    1.0000 </r>
       <r>   -6.0363    1.0000 </r>
       <r>   -5.8993    1.0000 </r>
       <r>   -5.8609    1.0000 </r>
       <r>   -5.8543    1.0000 </r>
       <r>   -5.8517    1.0000 </r>
       <r>   -5.8448    1.0000 </r>
       <r>   -5.8326    1.0000 </r>
       <r>   -5.7388    1.0000 </r>
       <r>   -5.7210    1.0000 </r>
       <r>   -5.6416    1.0000 </r>
       <r>   -5.3185    1.0000 </r>
       <r>   -5.1556    1.0000 </r>
       <r>   -5.1466    1.0000 </r>
       <r>   -5.0336    1.0000 </r>
       <r>   -4.7753    1.0000 </r>
       <r>   -4.1711    1.0000 </r>
       <r>   -2.1784    0.0000 </r>
       <r>   -1.7596    0.0000 </r>
       <r>   -1.4763    0.0000 </r>
       <r>   -1.3912    0.0000 </r>
       <r>   -1.3388    0.0000 </r>
       <r>   -1.1423    0.0000 </r>
       <r>   -1.0042    0.0000 </r>
       <r>   -0.9045    0.0000 </r>
       <r>   -0.8065    0.0000 </r>
       <r>   -0.7991    0.0000 </r>
       <r>   -0.7753    0.0000 </r>
       <r>   -0.7603    0.0000 </r>
       <r>   -0.7313    0.0000 </r>
       <r>   -0.7141    0.0000 </r>
       <r>   -0.4739    0.0000 </r>
       <r>   -0.3647    0.0000 </r>
       <r>   -0.1797    0.0000 </r>
       <r>   -0.0003    0.0000 </r>
       <r>    0.0210    0.0000 </r>
       <r>    0.0914    0.0000 </r>
       <r>    0.2768    0.0000 </r>
       <r>    0.3305    0.0000 </r>
       <r>    0.3736    0.0000 </r>
       <r>    0.4589    0.0000 </r>
       <r>    0.4991    0.0000 </r>
       <r>    0.5408    0.0000 </r>
       <r>    0.5885    0.0000 </r>
       <r>    0.6005    0.0000 </r>
       <r>    0.6462    0.0000 </r>
       <r>    0.6676    0.0000 </r>
       <r>    0.7176    0.0000 </r>
       <r>    0.7296    0.0000 </r>
       <r>    0.7821    0.0000 </r>
       <r>    0.8253    0.0000 </r>
       <r>    0.8447    0.0000 </r>
       <r>    0.9603    0.0000 </r>
       <r>    0.9867    0.0000 </r>
       <r>    1.0018    0.0000 </r>
       <r>    1.0225    0.0000 </r>
       <r>    1.0338    0.0000 </r>
       <r>    1.1544    0.0000 </r>
       <r>    1.1808    0.0000 </r>
       <r>    1.2155    0.0000 </r>
       <r>    1.2406    0.0000 </r>
       <r>    1.2932    0.0000 </r>
       <r>    1.3120    0.0000 </r>
       <r>    1.3297    0.0000 </r>
       <r>    1.3651    0.0000 </r>
       <r>    1.3992    0.0000 </r>
       <r>    1.4940    0.0000 </r>
       <r>    1.5371    0.0000 </r>
       <r>    1.5589    0.0000 </r>
       <r>    1.5638    0.0000 </r>
       <r>    1.5812    0.0000 </r>
       <r>    1.6075    0.0000 </r>
       <r>    1.6558    0.0000 </r>
       <r>    1.6605    0.0000 </r>
       <r>    1.6707    0.0000 </r>
       <r>    1.6798    0.0000 </r>
       <r>    1.6976    0.0000 </r>
       <r>    1.7577    0.0000 </r>
       <r>    1.8027    0.0000 </r>
      </set>
      <set comment="kpoint 2">
       <r>  -21.7644    1.0000 </r>
       <r>  -21.3868    1.0000 </r>
       <r>  -21.3620    1.0000 </r>
       <r>  -21.0893    1.0000 </r>
       <r>  -21.0863    1.0000 </r>
       <r>  -21.0107    1.0000 </r>
       <r>  -20.9867    1.0000 </r>
       <r>  -20.6484    1.0000 </r>
       <r>  -20.5885    1.0000 </r>
       <r>  -20.1915    1.0000 </r>
       <r>  -20.1186    1.0000 </r>
       <r>  -19.6112    1.0000 </r>
       <r>  -19.4982    1.0000 </r>
       <r>  -19.2068    1.0000 </r>
       <r>  -19.1489    1.0000 </r>
       <r>  -18.8291    1.0000 </r>
       <r>  -18.3628    1.0000 </r>
       <r>  -18.1875    1.0000 </r>
       <r>  -18.0530    1.0000 </r>
       <r>  -18.0450    1.0000 </r>
       <r>  -18.0037    1.0000 </r>
       <r>  -17.9675    1.0000 </r>
       <r>  -17.9647    1.0000 </r>
       <r>  -17.9579    1.0000 </r>
       <r>  -17.8693    1.0000 </r>
       <r>  -17.7801    1.0000 </r>
       <r>  -17.7578    1.0000 </r>
       <r>  -17.3209    1.0000 </r>
       <r>  -17.2328    1.0000 </r>
       <r>  -17.0667    1.0000 </r>
       <r>  -16.8111    1.0000 </r>
       <r>  -16.4874    1.0000 </r>
       <r>  -15.6321    1.0000 </r>
       <r>  -15.4336    1.0000 </r>
       <r>  -15.3066    1.0000 </r>
       <r>  -15.2063    1.0000 </r>
       <r>  -15.1324    1.0000 </r>
       <r>  -14.7097    1.0000 </r>
       <r>  -14.6785    1.0000 </r>
       <r>  -14.6100    1.0000 </r>
       <r>  -14.5319    1.0000 </r>
       <r>  -14.4750    1.0000 </r>
       <r>  -14.4260    1.0000 </r>
       <r>  -14.2568    1.0000 </r>
       <r>  -14.2515    1.0000 </r>
       <r>  -14.0441    1.0000 </r>
       <r>  -14.0055    1.0000 </r>
       <r>  -13.9391    1.0000 </r>
       <r>  -13.5149    1.0000 </r>
       <r>  -13.3700    1.0000 </r>
       <r>  -13.3529    1.0000 </r>
       <r>  -13.2902    1.0000 </r>
       <r>  -12.7941    1.0000 </r>
       <r>  -12.7898    1.0000 </r>
       <r>  -12.6125    1.0000 </r>
       <r>  -12.4504    1.0000 </r>
       <r>  -12.1991    1.0000 </r>
       <r>  -12.1468    1.0000 </r>
       <r>  -11.9003    1.0000 </r>
       <r>  -11.6571    1.0000 </r>
       <r>  -11.5428    1.0000 </r>
       <r>  -11.4571    1.0000 </r>
       <r>  -11.3077    1.0000 </r>
       <r>  -11.2751    1.0000 </r>
       <r>  -11.2703    1.0000 </r>
       <r>  -11.1804    1.0000 </r>
       <r>  -10.9931    1.0000 </r>
       <r>  -10.8597    1.0000 </r>
       <r>  -10.7394    1.0000 </r>
       <r>  -10.7089    1.0000 </r>
       <r>  -10.6102    1.0000 </r>
       <r>  -10.5804    1.0000 </r>
       <r>  -10.5710    1.0000 </r>
       <r>  -10.4426    1.0000 </r>
       <r>  -10.4062    1.0000 </r>
       <r>  -10.3791    1.0000 </r>
       <r>  -10.1894    1.0000 </r>
       <r>  -10.1223    1.0000 </r>
       <r>  -10.0587    1.0000 </r>
       <r>   -9.9749    1.0000 </r>
       <r>   -9.9208    1.0000 </r>
       <r>   -9.9085    1.0000 </r>
       <r>   -9.8360    1.0000 </r>
       <r>   -9.7942    1.0000 </r>
       <r>   -9.7329    1.0000 </r>
       <r>   -9.6951    1.0000 </r>
       <r>   -9.6744    1.0000 </r>
       <r>   -9.6694    1.0000 </r>
       <r>   -9.6576    1.0000 </r>
       <r>   -9.6487    1.0000 </r>
       <r>   -9.6295    1.0000 </r>
       <r>   -9.4274    1.0000 </r>
       <r>   -9.3038    1.0000 </r>
       <r>   -9.2860    1.0000 </r>
       <r>   -9.1531    1.0000 </r>
       <r>   -9.0069    1.0000 </r>
       <r>   -8.9015    1.0000 </r>
       <r>   -8.8466    1.0000 </r>
       <r>   -8.7897    1.0000 </r>
       <r>   -8.7495    1.0000 </r>
       <r>   -8.6989    1.0000 </r>
       <r>   -8.5773    1.0000 </r>
       <r>   -8.5700    1.0000 </r>
       <r>   -8.4555    1.0000 </r>
       <r>   -8.4423    1.0000 </r>
       <r>   -8.3855    1.0000 </r>
       <r>   -8.3497    1.0000 </r>
       <r>   -8.3095    1.0000 </r>
       <r>   -8.2439    1.0000 </r>
       <r>   -8.1275    1.0000 </r>
       <r>   -8.0773    1.0000 </r>
       <r>   -7.9514    1.0000 </r>
       <r>   -7.8990    1.0000 </r>
       <r>   -7.8214    1.0000 </r>
       <r>   -7.7975    1.0000 </r>
       <r>   -7.7502    1.0000 </r>
       <r>   -7.7345    1.0000 </r>
       <r>   -7.6934    1.0000 </r>
       <r>   -7.6502    1.0000 </r>
       <r>   -7.4943    1.0000 </r>
       <r>   -7.4321    1.0000 </r>
       <r>   -7.4054    1.0000 </r>
       <r>   -7.3401    1.0000 </r>
       <r>   -7.2857    1.0000 </r>
       <r>   -7.0004    1.0000 </r>
       <r>   -6.8787    1.0000 </r>
       <r>   -6.6920    1.0000 </r>
       <r>   -6.6470    1.0000 </r>
       <r>   -6.5113    1.0000 </r>
       <r>   -6.4291    1.0000 </r>
       <r>   -6.0379    1.0000 </r>
       <r>   -5.8993    1.0000 </r>
       <r>   -5.8609    1.0000 </r>
       <r>   -5.8543    1.0000 </r>
       <r>   -5.8517    1.0000 </r>
       <r>   -5.8449    1.0000 </r>
       <r>   -5.8327    1.0000 </r>
       <r>   -5.7390    1.0000 </r>
       <r>   -5.7190    1.0000 </r>
       <r>   -5.6433    1.0000 </r>
       <r>   -5.3176    1.0000 </r>
       <r>   -5.1551    1.0000 </r>
       <r>   -5.1480    1.0000 </r>
       <r>   -5.0324    1.0000 </r>
       <r>   -4.7753    1.0000 </r>
       <r>   -4.1713    1.0000 </r>
       <r>   -2.1783    0.0000 </r>
       <r>   -1.7596    0.0000 </r>
       <r>   -1.4772    0.0000 </r>
       <r>   -1.3921    0.0000 </r>
       <r>   -1.3377    0.0000 </r>
       <r>   -1.1439    0.0000 </r>
       <r>   -1.0024    0.0000 </r>
       <r>   -0.9059    0.0000 </r>
       <r>   -0.8071    0.0000 </r>
       <r>   -0.7981    0.0000 </r>
       <r>   -0.7753    0.0000 </r>
       <r>   -0.7600    0.0000 </r>
       <r>   -0.7310    0.0000 </r>
       <r>   -0.7137    0.0000 </r>
       <r>   -0.4738    0.0000 </r>
       <r>   -0.3632    0.0000 </r>
       <r>   -0.1793    0.0000 </r>
       <r>   -0.0001    0.0000 </r>
       <r>    0.0214    0.0000 </r>
       <r>    0.0916    0.0000 </r>
       <r>    0.2747    0.0000 </r>
       <r>    0.3289    0.0000 </r>
       <r>    0.3741    0.0000 </r>
       <r>    0.4583    0.0000 </r>
       <r>    0.4965    0.0000 </r>
       <r>    0.5408    0.0000 </r>
       <r>    0.5914    0.0000 </r>
       <r>    0.5990    0.0000 </r>
       <r>    0.6445    0.0000 </r>
       <r>    0.6681    0.0000 </r>
       <r>    0.7173    0.0000 </r>
       <r>    0.7317    0.0000 </r>
       <r>    0.7828    0.0000 </r>
       <r>    0.8261    0.0000 </r>
       <r>    0.8472    0.0000 </r>
       <r>    0.9608    0.0000 </r>
       <r>    0.9758    0.0000 </r>
       <r>    1.0123    0.0000 </r>
       <r>    1.0232    0.0000 </r>
       <r>    1.0344    0.0000 </r>
       <r>    1.1527    0.0000 </r>
       <r>    1.1777    0.0000 </r>
       <r>    1.2148    0.0000 </r>
       <r>    1.2410    0.0000 </r>
       <r>    1.2884    0.0000 </r>
       <r>    1.3129    0.0000 </r>
       <r>    1.3304    0.0000 </r>
       <r>    1.3701    0.0000 </r>
       <r>    1.4018    0.0000 </r>
       <r>    1.4786    0.0000 </r>
       <r>    1.5508    0.0000 </r>
       <r>    1.5593    0.0000 </r>
       <r>    1.5645    0.0000 </r>
       <r>    1.5834    0.0000 </r>
       <r>    1.6074    0.0000 </r>
       <r>    1.6536    0.0000 </r>
       <r>    1.6592    0.0000 </r>
       <r>    1.6658    0.0000 </r>
       <r>    1.6809    0.0000 </r>
       <r>    1.6968    0.0000 </r>
       <r>    1.7505    0.0000 </r>
       <r>    1.8126    0.0000 </r>
      </set>
      <set comment="kpoint 3">
       <r>  -21.7644    1.0000 </r>
       <r>  -21.3862    1.0000 </r>
       <r>  -21.3624    1.0000 </r>
       <r>  -21.0922    1.0000 </r>
       <r>  -21.0904    1.0000 </r>
       <r>  -21.0084    1.0000 </r>
       <r>  -20.9807    1.0000 </r>
       <r>  -20.6475    1.0000 </r>
       <r>  -20.5901    1.0000 </r>
       <r>  -20.1956    1.0000 </r>
       <r>  -20.1171    1.0000 </r>
       <r>  -19.6125    1.0000 </r>
       <r>  -19.4935    1.0000 </r>
       <r>  -19.2222    1.0000 </r>
       <r>  -19.1303    1.0000 </r>
       <r>  -18.8304    1.0000 </r>
       <r>  -18.3692    1.0000 </r>
       <r>  -18.1937    1.0000 </r>
       <r>  -18.0519    1.0000 </r>
       <r>  -18.0434    1.0000 </r>
       <r>  -18.0036    1.0000 </r>
       <r>  -17.9677    1.0000 </r>
       <r>  -17.9634    1.0000 </r>
       <r>  -17.9528    1.0000 </r>
       <r>  -17.8686    1.0000 </r>
       <r>  -17.7903    1.0000 </r>
       <r>  -17.7483    1.0000 </r>
       <r>  -17.3225    1.0000 </r>
       <r>  -17.2291    1.0000 </r>
       <r>  -17.0668    1.0000 </r>
       <r>  -16.8117    1.0000 </r>
       <r>  -16.4890    1.0000 </r>
       <r>  -15.6301    1.0000 </r>
       <r>  -15.4327    1.0000 </r>
       <r>  -15.3063    1.0000 </r>
       <r>  -15.2069    1.0000 </r>
       <r>  -15.1326    1.0000 </r>
       <r>  -14.7182    1.0000 </r>
       <r>  -14.6749    1.0000 </r>
       <r>  -14.6221    1.0000 </r>
       <r>  -14.5263    1.0000 </r>
       <r>  -14.4696    1.0000 </r>
       <r>  -14.4298    1.0000 </r>
       <r>  -14.2559    1.0000 </r>
       <r>  -14.2477    1.0000 </r>
       <r>  -14.0441    1.0000 </r>
       <r>  -13.9999    1.0000 </r>
       <r>  -13.9376    1.0000 </r>
       <r>  -13.5155    1.0000 </r>
       <r>  -13.3701    1.0000 </r>
       <r>  -13.3537    1.0000 </r>
       <r>  -13.2912    1.0000 </r>
       <r>  -12.7931    1.0000 </r>
       <r>  -12.7898    1.0000 </r>
       <r>  -12.6136    1.0000 </r>
       <r>  -12.4517    1.0000 </r>
       <r>  -12.1968    1.0000 </r>
       <r>  -12.1457    1.0000 </r>
       <r>  -11.9034    1.0000 </r>
       <r>  -11.6611    1.0000 </r>
       <r>  -11.5515    1.0000 </r>
       <r>  -11.4500    1.0000 </r>
       <r>  -11.3055    1.0000 </r>
       <r>  -11.2774    1.0000 </r>
       <r>  -11.2680    1.0000 </r>
       <r>  -11.1792    1.0000 </r>
       <r>  -10.9961    1.0000 </r>
       <r>  -10.8541    1.0000 </r>
       <r>  -10.7371    1.0000 </r>
       <r>  -10.7110    1.0000 </r>
       <r>  -10.6158    1.0000 </r>
       <r>  -10.5800    1.0000 </r>
       <r>  -10.5632    1.0000 </r>
       <r>  -10.4435    1.0000 </r>
       <r>  -10.4067    1.0000 </r>
       <r>  -10.3790    1.0000 </r>
       <r>  -10.1890    1.0000 </r>
       <r>  -10.1217    1.0000 </r>
       <r>  -10.0600    1.0000 </r>
       <r>   -9.9752    1.0000 </r>
       <r>   -9.9219    1.0000 </r>
       <r>   -9.9093    1.0000 </r>
       <r>   -9.8363    1.0000 </r>
       <r>   -9.7932    1.0000 </r>
       <r>   -9.7332    1.0000 </r>
       <r>   -9.6947    1.0000 </r>
       <r>   -9.6761    1.0000 </r>
       <r>   -9.6665    1.0000 </r>
       <r>   -9.6603    1.0000 </r>
       <r>   -9.6457    1.0000 </r>
       <r>   -9.6297    1.0000 </r>
       <r>   -9.4269    1.0000 </r>
       <r>   -9.3132    1.0000 </r>
       <r>   -9.2780    1.0000 </r>
       <r>   -9.1540    1.0000 </r>
       <r>   -9.0067    1.0000 </r>
       <r>   -8.9023    1.0000 </r>
       <r>   -8.8456    1.0000 </r>
[...]
       <r>   -19.8251     0.0000    22.0000 </r>
       <r>   -19.7384     0.0000    22.0000 </r>
       <r>   -19.6517    10.2697    22.8906 </r>
       <r>   -19.5650     7.7166    23.5987 </r>
       <r>   -19.4783    15.6664    25.0097 </r>
       <r>   -19.3915     4.2711    25.5981 </r>
       <r>   -19.3048     8.3203    26.3486 </r>
       <r>   -19.2181     8.2179    27.1207 </r>
       <r>   -19.1314    12.2444    28.2449 </r>
       <r>   -19.0447     4.3226    28.6762 </r>
       <r>   -18.9580    11.1938    29.6765 </r>
       <r>   -18.8712     5.7472    30.2506 </r>
       <r>   -18.7845     8.1032    30.9804 </r>
       <r>   -18.6978    17.0286    32.5052 </r>
       <r>   -18.6111     1.9924    32.6787 </r>
       <r>   -18.5244     3.6358    33.0153 </r>
       <r>   -18.4376     4.6961    33.4879 </r>
       <r>   -18.3509    10.5851    34.4242 </r>
       <r>   -18.2642     5.1347    34.9220 </r>
       <r>   -18.1775     9.6405    35.8139 </r>
       <r>   -18.0908     4.1248    36.2099 </r>
       <r>   -18.0041    48.0045    40.4233 </r>
       <r>   -17.9173    67.8251    46.6343 </r>
       <r>   -17.8306    37.2933    50.2499 </r>
       <r>   -17.7439    15.6599    51.7670 </r>
       <r>   -17.6572    21.1817    53.8707 </r>
       <r>   -17.5705     0.0000    54.0000 </r>
       <r>   -17.4838     0.0000    54.0000 </r>
       <r>   -17.3970     7.7303    54.6704 </r>
       <r>   -17.3103     9.2799    55.5360 </r>
       <r>   -17.2236     7.1356    56.1944 </r>
       <r>   -17.1369     9.7958    57.1117 </r>
       <r>   -17.0502    26.5996    59.4336 </r>
       <r>   -16.9635     4.0461    60.0060 </r>
       <r>   -16.8767     5.5306    60.4856 </r>
       <r>   -16.7900    16.9704    61.9995 </r>
       <r>   -16.7033     0.0000    62.0000 </r>
       <r>   -16.6166     0.0000    62.0000 </r>
       <r>   -16.5299    10.4975    62.9103 </r>
       <r>   -16.4431    11.7680    64.0000 </r>
       <r>   -16.3564     0.0000    64.0000 </r>
       <r>   -16.2697     0.0000    64.0000 </r>
       <r>   -16.1830     0.0000    64.0000 </r>
       <r>   -16.0963     0.0000    64.0000 </r>
       <r>   -16.0096     0.0000    64.0000 </r>
       <r>   -15.9228     0.0000    64.0000 </r>
       <r>   -15.8361     0.0000    64.0000 </r>
       <r>   -15.7494     0.0000    64.0000 </r>
       <r>   -15.6627     0.0489    64.0042 </r>
       <r>   -15.5760    11.9715    65.0424 </r>
       <r>   -15.4893    10.3495    65.9742 </r>
       <r>   -15.4025    13.6332    67.1822 </r>
       <r>   -15.3158    17.2720    68.7766 </r>
       <r>   -15.2291    17.8888    70.3867 </r>
       <r>   -15.1424    22.9015    72.5226 </r>
       <r>   -15.0557    10.1179    74.0000 </r>
       <r>   -14.9690     4.8070    74.4169 </r>
       <r>   -14.8822     5.5232    74.9318 </r>
       <r>   -14.7955    12.1348    76.0296 </r>
       <r>   -14.7088    18.2521    77.7729 </r>
       <r>   -14.6221    14.5252    79.1910 </r>
       <r>   -14.5354    16.2837    80.6911 </r>
       <r>   -14.4486    25.7806    83.0698 </r>
       <r>   -14.3619    18.8920    84.8396 </r>
       <r>   -14.2752    19.8083    86.6013 </r>
       <r>   -14.1885    23.3806    88.7836 </r>
       <r>   -14.1018    17.6490    90.4519 </r>
       <r>   -14.0151    24.0598    92.6740 </r>
       <r>   -13.9283     5.8922    93.2239 </r>
       <r>   -13.8416    15.5926    94.6593 </r>
       <r>   -13.7549     6.7995    95.5667 </r>
       <r>   -13.6682     4.5363    96.0000 </r>
       <r>   -13.5815     0.0002    96.0000 </r>
       <r>   -13.4948    16.5084    97.4316 </r>
       <r>   -13.4080    21.7539    99.4673 </r>
       <r>   -13.3213    35.3033   102.7180 </r>
       <r>   -13.2346     7.3895   104.0000 </r>
       <r>   -13.1479     0.0000   104.0000 </r>
       <r>   -13.0612     0.0000   104.0000 </r>
       <r>   -12.9745     0.0000   104.0000 </r>
       <r>   -12.8877     0.0000   104.0000 </r>
       <r>   -12.8010     3.3317   104.2889 </r>
       <r>   -12.7143    39.3228   108.3115 </r>
       <r>   -12.6276    11.2945   109.3587 </r>
       <r>   -12.5409     8.5021   110.2461 </r>
       <r>   -12.4542     5.3593   111.0699 </r>
       <r>   -12.3674     2.9290   111.4561 </r>
       <r>   -12.2807     2.5525   111.7002 </r>
       <r>   -12.1940    17.6279   113.2648 </r>
       <r>   -12.1073    20.3554   115.1688 </r>
       <r>   -12.0206    14.3865   116.5297 </r>
       <r>   -11.9338    10.8798   117.5752 </r>
       <r>   -11.8471     6.2510   118.4521 </r>
       <r>   -11.7604     4.3245   118.8512 </r>
       <r>   -11.6737     2.8176   119.0995 </r>
       <r>   -11.5870    23.4829   121.1658 </r>
       <r>   -11.5003     9.1961   121.9986 </r>
       <r>   -11.4135     7.0765   122.6137 </r>
       <r>   -11.3268    34.8754   125.7065 </r>
       <r>   -11.2401    31.0893   128.6591 </r>
       <r>   -11.1534    23.1703   130.7715 </r>
       <r>   -11.0667    12.2121   131.9383 </r>
       <r>   -10.9800    11.5278   132.9792 </r>
       <r>   -10.8932    11.8322   134.0281 </r>
       <r>   -10.8065    19.9840   135.8731 </r>
       <r>   -10.7198    25.1923   138.2402 </r>
       <r>   -10.6331    18.2925   140.0292 </r>
       <r>   -10.5464    33.1316   143.1475 </r>
       <r>   -10.4597    37.5511   146.8594 </r>
       <r>   -10.3729    46.6705   151.2499 </r>
       <r>   -10.2862     6.3056   152.0000 </r>
       <r>   -10.1995     5.2032   152.4512 </r>
       <r>   -10.1128    34.4556   155.4828 </r>
       <r>   -10.0261    18.9046   157.3988 </r>
       <r>    -9.9393    45.9058   161.4330 </r>
       <r>    -9.8526    29.2904   164.1458 </r>
       <r>    -9.7659    35.5439   167.4635 </r>
       <r>    -9.6792    65.1069   173.6460 </r>
       <r>    -9.5925    76.4709   181.1090 </r>
       <r>    -9.5058     9.2917   182.0000 </r>
       <r>    -9.4190    17.5544   183.5223 </r>
       <r>    -9.3323    16.8405   185.2599 </r>
       <r>    -9.2456    18.8618   186.9387 </r>
       <r>    -9.1589    24.9674   189.3076 </r>
       <r>    -9.0722     5.3295   190.0000 </r>
       <r>    -8.9855    20.0446   191.7382 </r>
       <r>    -8.8987    20.0940   193.7425 </r>
       <r>    -8.8120    16.6269   195.4418 </r>
       <r>    -8.7253    49.2052   199.9886 </r>
       <r>    -8.6386    20.7258   201.7973 </r>
       <r>    -8.5519    44.0825   205.8230 </r>
       <r>    -8.4652    33.8212   208.9329 </r>
       <r>    -8.3784    35.2991   212.2859 </r>
       <r>    -8.2917    23.1768   214.6701 </r>
       <r>    -8.2050    25.9513   217.1709 </r>
       <r>    -8.1183    28.7328   219.8848 </r>
       <r>    -8.0316    23.5540   222.0873 </r>
       <r>    -7.9449    19.7794   224.0737 </r>
       <r>    -7.8581    32.8491   227.0015 </r>
       <r>    -7.7714    30.7689   229.8796 </r>
       <r>    -7.6847    41.8148   233.7687 </r>
       <r>    -7.5980    30.3755   236.6999 </r>
       <r>    -7.5113    18.3521   238.5554 </r>
       <r>    -7.4245    37.5218   241.8846 </r>
       <r>    -7.3378    33.9334   245.4412 </r>
       <r>    -7.2511    25.8644   248.0000 </r>
       <r>    -7.1644     0.0000   248.0000 </r>
       <r>    -7.0777     0.0000   248.0000 </r>
       <r>    -6.9910     7.2705   248.6305 </r>
       <r>    -6.9042    21.5566   250.7025 </r>
       <r>    -6.8175    13.7775   252.0812 </r>
       <r>    -6.7308    16.7167   253.6134 </r>
       <r>    -6.6441    10.6123   254.5745 </r>
       <r>    -6.5574     8.0905   255.6095 </r>
       <r>    -6.4707    15.5517   256.9996 </r>
       <r>    -6.3839    18.3910   258.6732 </r>
       <r>    -6.2972     9.4097   259.5452 </r>
       <r>    -6.2105    13.2892   260.7572 </r>
       <r>    -6.1238     3.0355   261.1172 </r>
       <r>    -6.0371     6.3426   261.6775 </r>
       <r>    -5.9504     0.4535   262.0393 </r>
       <r>    -5.8636    42.9466   265.8304 </r>
       <r>    -5.7769    92.0926   275.1788 </r>
       <r>    -5.6902    30.5880   277.8838 </r>
       <r>    -5.6035     7.2382   278.5585 </r>
       <r>    -5.5168     6.4348   279.1859 </r>
       <r>    -5.4300    13.1045   280.3870 </r>
       <r>    -5.3433     7.3018   281.1124 </r>
       <r>    -5.2566    16.7148   282.6258 </r>
       <r>    -5.1699     7.5245   283.3364 </r>
       <r>    -5.0832    15.6400   284.7425 </r>
       <r>    -4.9965    23.3684   286.8621 </r>
       <r>    -4.9097    12.3617   288.0000 </r>
       <r>    -4.8230     0.0038   288.0003 </r>
       <r>    -4.7363    23.0597   290.0000 </r>
       <r>    -4.6496     0.0000   290.0000 </r>
       <r>    -4.5629     0.0000   290.0000 </r>
       <r>    -4.4762     0.0000   290.0000 </r>
       <r>    -4.3894     0.0000   290.0000 </r>
       <r>    -4.3027     0.0000   290.0000 </r>
       <r>    -4.2160     0.3739   290.0324 </r>
       <r>    -4.1293    22.6896   292.0000 </r>
       <r>    -4.0426     0.0000   292.0000 </r>
       <r>    -3.9559     0.0000   292.0000 </r>
       <r>    -3.8691     0.0000   292.0000 </r>
       <r>    -3.7824     0.0000   292.0000 </r>
       <r>    -3.6957     0.0000   292.0000 </r>
       <r>    -3.6090     0.0000   292.0000 </r>
       <r>    -3.5223     0.0000   292.0000 </r>
       <r>    -3.4355     0.0000   292.0000 </r>
       <r>    -3.3488     0.0000   292.0000 </r>
       <r>    -3.2621     0.0000   292.0000 </r>
       <r>    -3.1754     0.0000   292.0000 </r>
       <r>    -3.0887     0.0000   292.0000 </r>
       <r>    -3.0020     0.0000   292.0000 </r>
       <r>    -2.9152     0.0000   292.0000 </r>
       <r>    -2.8285     0.0000   292.0000 </r>
       <r>    -2.7418     0.0000   292.0000 </r>
       <r>    -2.6551     0.0000   292.0000 </r>
       <r>    -2.5684     0.0000   292.0000 </r>
       <r>    -2.4817     0.0000   292.0000 </r>
       <r>    -2.3949     0.0000   292.0000 </r>
       <r>    -2.3082     0.0000   292.0000 </r>
       <r>    -2.2215     0.0000   292.0000 </r>
       <r>    -2.1348    23.0620   293.9999 </r>
       <r>    -2.0481     0.0000   294.0000 </r>
       <r>    -1.9614     0.0000   294.0000 </r>
       <r>    -1.8746     0.0000   294.0000 </r>
       <r>    -1.7879     0.0003   294.0000 </r>
       <r>    -1.7012    23.0615   295.9999 </r>
       <r>    -1.6145     0.0000   296.0000 </r>
       <r>    -1.5278    12.4825   297.0825 </r>
       <r>    -1.4411    16.6906   299.0605 </r>
       <r>    -1.3543    14.4803   300.4714 </r>
       <r>    -1.2676     9.0536   301.2895 </r>
       <r>    -1.1809    11.1894   302.3228 </r>
       <r>    -1.0942    23.2652   304.5038 </r>
       <r>    -1.0075     6.7869   305.1419 </r>
       <r>    -0.9207    12.7669   306.3850 </r>
       <r>    -0.8340    14.8992   308.0600 </r>
       <r>    -0.7473    89.9373   315.9095 </r>
       <r>    -0.6606    31.1119   319.0404 </r>
       <r>    -0.5739     5.1672   319.5499 </r>
       <r>    -0.4872    17.7820   321.1207 </r>
       <r>    -0.4004     9.0776   322.0000 </r>
       <r>    -0.3137     9.0979   322.7889 </r>
       <r>    -0.2270     2.3543   323.0071 </r>
       <r>    -0.1403    13.6743   324.2110 </r>
       <r>    -0.0536    17.8753   325.9039 </r>
       <r>     0.0331    22.2031   328.0845 </r>
       <r>     0.1199    41.5284   331.8190 </r>
       <r>     0.2066    22.4865   334.2370 </r>
       <r>     0.2933    20.3908   336.0616 </r>
       <r>     0.3800    34.4360   339.1102 </r>
       <r>     0.4667    25.8152   341.5217 </r>
       <r>     0.5534    35.3583   344.8497 </r>
       <r>     0.6402    41.9285   348.7053 </r>
       <r>     0.7269    39.4744   352.6850 </r>
       <r>     0.8136    38.2548   356.3871 </r>
       <r>     0.9003    43.6540   360.3932 </r>
       <r>     0.9870    56.6633   365.5368 </r>
       <r>     1.0738    52.9134   370.5306 </r>
       <r>     1.1605    48.3273   374.9926 </r>
       <r>     1.2472    60.4881   380.6022 </r>
       <r>     1.3339    49.9102   385.2655 </r>
       <r>     1.4206    35.1326   388.8518 </r>
       <r>     1.5073    47.9578   393.3266 </r>
       <r>     1.5941    61.0017   399.0014 </r>
       <r>     1.6808    64.6567   405.0495 </r>
       <r>     1.7675    64.0104   411.3436 </r>
       <r>     1.8542    41.4902   415.2968 </r>
       <r>     1.9409     3.5297   416.0000 </r>
       <r>     2.0276     0.0000   416.0000 </r>
       <r>     2.1144     0.0000   416.0000 </r>
       <r>     2.2011     0.0000   416.0000 </r>
       <r>     2.2878     0.0000   416.0000 </r>
       <r>     2.3745     0.0000   416.0000 </r>
       <r>     2.4612     0.0000   416.0000 </r>
       <r>     2.5479     0.0000   416.0000 </r>
       <r>     2.6347     0.0000   416.0000 </r>
       <r>     2.7214     0.0000   416.0000 </r>
       <r>     2.8081     0.0000   416.0000 </r>
       <r>     2.8948     0.0000   416.0000 </r>
       <r>     2.9815     0.0000   416.0000 </r>
       <r>     3.0682     0.0000   416.0000 </r>
      </set>
     </set>
    </array>
   </total>
  </dos>
 </calculation>
 <structure name="finalpos" >
  <crystal>
   <varray name="basis" >
    <v>      14.69972573      -0.00561150       0.00000000 </v>
    <v>       0.09601441      26.28528915       0.00000000 </v>
    <v>       0.00025525       0.00015594      20.00000000 </v>
   </varray>
   <i name="volume">   7727.74160011 </i>
   <varray name="rec_basis" >
    <v>       0.06802839      -0.00024849      -0.00000087 </v>
    <v>       0.00001452       0.03804404      -0.00000030 </v>
    <v>       0.00000000       0.00000000       0.05000000 </v>
   </varray>
  </crystal>
  <varray name="positions" >
   <v>       0.09196496       0.08276988       0.48802498 </v>
   <v>       0.09300360       0.02876360       0.48379104 </v>
   <v>       0.17526772       0.00013621       0.47593245 </v>
   <v>       0.09277730       0.86568921       0.48876888 </v>
   <v>       0.09342454       0.91968510       0.48417722 </v>
   <v>       0.17548458       0.94817960       0.47621325 </v>
   <v>       0.18989367       0.79172200       0.45372504 </v>
   <v>       0.18850366       0.15611019       0.45103301 </v>
   <v>       0.00919066       0.84039119       0.49011277 </v>
   <v>       0.00859439       0.00158880       0.48407577 </v>
   <v>       0.92398166       0.02889475       0.48422856 </v>
   <v>       0.92466756       0.08289363       0.48882322 </v>
   <v>       0.00825342       0.10818505       0.49017852 </v>
   <v>       0.84190961       0.00040494       0.47631648 </v>
   <v>       0.00880134       0.94698251       0.48406419 </v>
   <v>       0.92439590       0.91980636       0.48380257 </v>
   <v>       0.92546435       0.86579662       0.48798725 </v>
   <v>       0.84212959       0.94844633       0.47600769 </v>
   <v>       0.51022357       0.66707255       0.49588768 </v>
   <v>       0.59205462       0.69457139       0.49541792 </v>
   <v>       0.51036296       0.61073098       0.49401421 </v>
   <v>       0.43606934       0.58349962       0.46796242 </v>
   <v>       0.43499938       0.53055233       0.46787156 </v>
   <v>       0.50922268       0.50237436       0.49242584 </v>
   <v>       0.26934329       0.76284752       0.45767190 </v>
   <v>       0.82893838       0.79243154       0.45104282 </v>
   <v>       0.74971884       0.76357512       0.45429218 </v>
   <v>       0.50721038       0.28145850       0.49583709 </v>
   <v>       0.42539668       0.25394432       0.49536732 </v>
   <v>       0.50706357       0.33779949       0.49397632 </v>
   <v>       0.58139545       0.36503480       0.46798309 </v>
   <v>       0.58248677       0.41797948       0.46792304 </v>
   <v>       0.50822023       0.44615505       0.49241413 </v>
   <v>       0.74814965       0.18573658       0.45764866 </v>
   <v>       0.82762592       0.15687937       0.45375932 </v>
   <v>       0.26775377       0.18493983       0.45422065 </v>
   <v>       0.17744490       0.83521812       0.49372307 </v>
   <v>       0.17651087       0.11311419       0.49193703 </v>
   <v>       0.42667010       0.74770423       0.50223741 </v>
   <v>       0.42803551       0.69442329       0.49909474 </v>
   <v>       0.59279186       0.74779751       0.49989996 </v>
   <v>       0.50957037       0.77391044       0.50371929 </v>
   <v>       0.58427591       0.52937358       0.51737169 </v>
   <v>       0.58435681       0.58232467       0.51880783 </v>
   <v>       0.33989375       0.77637399       0.50159050 </v>
   <v>       0.24696016       0.84771607       0.53921436 </v>
   <v>       0.32659843       0.81905357       0.54284108 </v>
   <v>       0.67902376       0.77666358       0.49843229 </v>
   <v>       0.69179359       0.81896177       0.54040103 </v>
   <v>       0.77114008       0.84759999       0.53742296 </v>
   <v>       0.84093844       0.83543459       0.49192743 </v>
   <v>       0.59078714       0.20084048       0.50216655 </v>
   <v>       0.58940663       0.25411991       0.49905254 </v>
   <v>       0.42467992       0.20071396       0.49981585 </v>
   <v>       0.50791127       0.17461043       0.50363989 </v>
   <v>       0.43312541       0.41915150       0.51728905 </v>
   <v>       0.43303774       0.36620023       0.51872326 </v>
   <v>       0.67758094       0.17220018       0.50154592 </v>
   <v>       0.84002723       0.11337947       0.49375943 </v>
   <v>       0.77050611       0.10088365       0.53923830 </v>
   <v>       0.69086349       0.12953935       0.54282522 </v>
   <v>       0.33846046       0.17184789       0.49834637 </v>
   <v>       0.32568798       0.12957067       0.54034925 </v>
   <v>       0.24633936       0.10093629       0.53740094 </v>
   <v>       0.13740765       0.78138839       0.41762178 </v>
   <v>       0.13569787       0.16611301       0.41492754 </v>
   <v>       0.77847323       0.92812478       0.46856431 </v>
   <v>       0.77806156       0.02083874       0.46916464 </v>
   <v>       0.23932281       0.92774790       0.46899323 </v>
   <v>       0.23892187       0.02045939       0.46846009 </v>
   <v>       0.27858984       0.73033434       0.42437535 </v>
   <v>       0.74099822       0.73137545       0.42044871 </v>
   <v>       0.88168285       0.78244543       0.41487982 </v>
   <v>       0.37680418       0.51047404       0.44673670 </v>
   <v>       0.37868972       0.60405253       0.44619076 </v>
   <v>       0.65674566       0.67431434       0.49176936 </v>
   <v>       0.88015795       0.16721576       0.41769302 </v>
   <v>       0.73890096       0.21823943       0.42433367 </v>
   <v>       0.27649986       0.21711312       0.42033900 </v>
   <v>       0.64075602       0.43804515       0.44687387 </v>
   <v>       0.63881122       0.34448605       0.44624838 </v>
   <v>       0.36070307       0.27419991       0.49175175 </v>
   <v>       0.00927042       0.79909562       0.49595475 </v>
   <v>       0.00820182       0.14947931       0.49605220 </v>
   <v>       0.23762067       0.88002960       0.57277327 </v>
   <v>       0.37905032       0.82934166       0.57898998 </v>
   <v>       0.63920823       0.82890046       0.57670651 </v>
   <v>       0.78012258       0.87958380       0.57151908 </v>
   <v>       0.64204792       0.60193340       0.54128567 </v>
   <v>       0.64201507       0.50838582       0.53800170 </v>
   <v>       0.36363908       0.67400666       0.50134640 </v>
   <v>       0.50923667       0.81542220       0.50422369 </v>
   <v>       0.77984821       0.06857969       0.57281456 </v>
   <v>       0.63839054       0.11927042       0.57896520 </v>
   <v>       0.37827058       0.11964577       0.57665956 </v>
   <v>       0.23737043       0.06896593       0.57152307 </v>
   <v>       0.37531687       0.34659172       0.54116654 </v>
   <v>       0.37535118       0.44013676       0.53787053 </v>
   <v>       0.65380652       0.27453404       0.50132827 </v>
   <v>       0.50830324       0.13309662       0.50413892 </v>
  </varray>
 </structure>
</modeling>
