<?xml version="1.0" encoding="ISO-8859-1"?>
<modeling>
 <generator>
  <i name="program" type="string">vasp </i>
  <i name="version" type="string">5.4.4.18Apr17-6-g9f103f2a35  </i>
  <i name="subversion" type="string">(build Jun 07 2020 16:50:00) complex            parallel </i>
  <i name="platform" type="string">LinuxIFC </i>
  <i name="date" type="string">2023 02 27 </i>
  <i name="time" type="string">05:40:31 </i>
 </generator>
 <incar>
  <i type="string" name="SYSTEM">Simulation for cell shape cell volume r</i>
  <i type="int" name="ISTART">     1</i>
  <i type="string" name="PREC">high</i>
  <i type="string" name="ALGO">48</i>
  <i type="int" name="ICHARG">    11</i>
  <i type="int" name="NELM">   200</i>
  <i type="int" name="IBRION">    -1</i>
  <i name="EDIFF">      0.00001000</i>
  <i name="EDIFFG">     -0.01000000</i>
  <i type="int" name="NSW">     0</i>
  <i type="int" name="ISIF">     2</i>
  <i name="ENCUT">    500.00000000</i>
  <i name="POTIM">      0.30000000</i>
  <i type="string" name="LREAL">A</i>
  <i type="int" name="ISMEAR">     0</i>
  <i name="SIGMA">      0.01000000</i>
  <i type="int" name="NWRITE">     0</i>
  <i type="logical" name="LWAVE"> F  </i>
  <i type="logical" name="LCHARG"> F  </i>
  <v type="int" name="KPOINT_BSE">    -1     0     0     0</v>
  <i type="int" name="NELM">   200</i>
  <i type="string" name="GGA">PE</i>
 </incar>
 <structure name="primitive_cell" >
  <crystal>
   <varray name="basis" >
    <v>      22.13943582       0.00000003       0.00000000 </v>
    <v>     -11.06971793      19.17331383       0.00000000 </v>
    <v>       0.00000000       0.00000000      20.00000000 </v>
   </varray>
   <i name="volume">   8489.72702410 </i>
   <varray name="rec_basis" >
    <v>       0.04516827       0.02607791       0.00000000 </v>
    <v>      -0.00000000       0.05215582       0.00000000 </v>
    <v>       0.00000000       0.00000000       0.05000000 </v>
   </varray>
  </crystal>
  <varray name="positions" >
   <v>       0.36954121      -0.37038411      -0.46878499 </v>
   <v>       0.40347983      -0.40880845      -0.46745125 </v>
   <v>       0.40671777      -0.29744898      -0.46896023 </v>
   <v>       0.29583325      -0.40671777      -0.46896023 </v>
   <v>       0.37382135      -0.45958352      -0.48092543 </v>
   <v>       0.26773360      -0.46356738      -0.46864067 </v>
   <v>       0.46356738      -0.26869902      -0.46864067 </v>
   <v>       0.37038411      -0.26007468      -0.46878499 </v>
   <v>       0.26007468      -0.36954121      -0.46878499 </v>
   <v>       0.47704447      -0.37804151      -0.48430068 </v>
   <v>       0.48952107      -0.34722848       0.46889741 </v>
   <v>       0.29744898      -0.29583325      -0.46896023 </v>
   <v>      -0.49086118      -0.34172890      -0.44434717 </v>
   <v>       0.40880845      -0.18771172      -0.46745125 </v>
   <v>       0.18771172      -0.40347983      -0.46745125 </v>
   <v>       0.49459834      -0.43523771      -0.49196342 </v>
   <v>       0.26869902      -0.26773360      -0.46864067 </v>
   <v>       0.45958352      -0.16659513      -0.48092543 </v>
   <v>       0.16325045      -0.48952107       0.46889741 </v>
   <v>       0.46711371      -0.45202642       0.40330120 </v>
   <v>       0.14913228       0.49086118      -0.44434717 </v>
   <v>       0.14491402      -0.47704447      -0.48430068 </v>
   <v>       0.48441911      -0.46935497       0.44666709 </v>
   <v>       0.16659513      -0.37382135      -0.48092543 </v>
   <v>      -0.47518040      -0.43163393      -0.38912858 </v>
   <v>      -0.48286047      -0.45809282      -0.43715624 </v>
   <v>       0.37804151      -0.14491402      -0.48430068 </v>
   <v>       0.34722848      -0.16325045       0.46889741 </v>
   <v>       0.34172890      -0.14913228      -0.44434717 </v>
   <v>       0.49637522       0.47467737       0.44110203 </v>
   <v>       0.07016395      -0.49459834      -0.49196342 </v>
   <v>      -0.47043524       0.48591095      -0.44177825 </v>
   <v>       0.43523771      -0.07016395      -0.49196342 </v>
   <v>       0.08085987      -0.46711371       0.40330120 </v>
   <v>       0.45202642      -0.08085987       0.40330120 </v>
   <v>      -0.48154037       0.45158335       0.49607647 </v>
   <v>       0.48851504       0.44809030       0.39317464 </v>
   <v>       0.04354647       0.47518040      -0.38912858 </v>
   <v>       0.04622592      -0.48441911       0.44666709 </v>
   <v>       0.46935497      -0.04622592       0.44666709 </v>
   <v>       0.02476765       0.48286047      -0.43715624 </v>
   <v>      -0.43468350       0.49940797      -0.33953219 </v>
   <v>       0.43163393      -0.04354647      -0.38912858 </v>
   <v>       0.45809282      -0.02476765      -0.43715624 </v>
   <v>      -0.44708849       0.46263605      -0.38104931 </v>
   <v>      -0.48820127       0.41103730      -0.36375067 </v>
   <v>      -0.46812466       0.39161710       0.48753859 </v>
   <v>      -0.47467737       0.02169785       0.44110203 </v>
   <v>      -0.02169785      -0.49637522       0.44110203 </v>
   <v>      -0.40088903       0.45786732      -0.39147629 </v>
   <v>      -0.04365381       0.47043524      -0.44177825 </v>
   <v>      -0.49693720       0.36052779       0.44331468 </v>
   <v>      -0.48591095       0.04365381      -0.44177825 </v>
   <v>      -0.48871861       0.35612828      -0.46889487 </v>
   <v>      -0.44809030       0.04042474       0.39317464 </v>
   <v>      -0.36187744       0.46942647       0.48168061 </v>
   <v>      -0.45158335       0.06687628       0.49607647 </v>
   <v>      -0.06687628       0.48154037       0.49607647 </v>
   <v>      -0.04042474      -0.48851504       0.39317464 </v>
   <v>      -0.39410939       0.41717541       0.48052437 </v>
   <v>      -0.06590853       0.43468350      -0.33953219 </v>
   <v>      -0.49940797       0.06590853      -0.33953219 </v>
   <v>      -0.09027546       0.44708849      -0.38104931 </v>
   <v>      -0.46263605       0.09027546      -0.38104931 </v>
   <v>      -0.41103730       0.10076143      -0.36375067 </v>
   <v>      -0.10076143       0.48820127      -0.36375067 </v>
   <v>      -0.39161710       0.14025824       0.48753859 </v>
   <v>      -0.14124366       0.40088903      -0.39147629 </v>
   <v>      -0.36052779       0.14253501       0.44331468 </v>
   <v>      -0.36475465       0.37496447       0.48141633 </v>
   <v>      -0.14025824       0.46812466       0.48753859 </v>
   <v>      -0.35612828       0.15515311      -0.46889487 </v>
   <v>      -0.45786732       0.14124366      -0.39147629 </v>
   <v>      -0.46325331       0.27717681       0.48081020 </v>
   <v>      -0.14253501       0.49693720       0.44331468 </v>
   <v>      -0.16869610       0.36187744       0.48168061 </v>
   <v>      -0.15515311       0.48871861      -0.46889487 </v>
   <v>      -0.25956989       0.46325331       0.48081020 </v>
   <v>      -0.46942647       0.16869610       0.48168061 </v>
   <v>      -0.40654286       0.30220510       0.48156671 </v>
   <v>      -0.18871520       0.39410939       0.48052437 </v>
   <v>      -0.41717541       0.18871520       0.48052437 </v>
   <v>      -0.29125203       0.40654286       0.48156671 </v>
   <v>      -0.37496447       0.26028088       0.48141633 </v>
   <v>      -0.27717681       0.25956989       0.48081020 </v>
   <v>      -0.26028088       0.36475465       0.48141633 </v>
   <v>      -0.30220510       0.29125203       0.48156671 </v>
  </varray>
 </structure>
 <varray name="primitive_index" >
  <v type="int" >        1 </v>
  <v type="int" >       82 </v>
  <v type="int" >        6 </v>
  <v type="int" >        2 </v>
  <v type="int" >       43 </v>
  <v type="int" >       42 </v>
  <v type="int" >       41 </v>
  <v type="int" >        5 </v>
  <v type="int" >        3 </v>
  <v type="int" >       31 </v>
  <v type="int" >       72 </v>
  <v type="int" >        4 </v>
  <v type="int" >       73 </v>
  <v type="int" >       83 </v>
  <v type="int" >       84 </v>
  <v type="int" >       28 </v>
  <v type="int" >       40 </v>
  <v type="int" >       44 </v>
  <v type="int" >       80 </v>
  <v type="int" >       71 </v>
  <v type="int" >       81 </v>
  <v type="int" >       39 </v>
  <v type="int" >       30 </v>
  <v type="int" >       45 </v>
  <v type="int" >       52 </v>
  <v type="int" >       13 </v>
  <v type="int" >       35 </v>
  <v type="int" >       76 </v>
  <v type="int" >       77 </v>
  <v type="int" >       29 </v>
  <v type="int" >       36 </v>
  <v type="int" >       14 </v>
  <v type="int" >       32 </v>
  <v type="int" >       79 </v>
  <v type="int" >       75 </v>
  <v type="int" >       15 </v>
  <v type="int" >       70 </v>
  <v type="int" >       64 </v>
  <v type="int" >       38 </v>
  <v type="int" >       34 </v>
  <v type="int" >       23 </v>
  <v type="int" >       53 </v>
  <v type="int" >       58 </v>
  <v type="int" >       18 </v>
  <v type="int" >       16 </v>
  <v type="int" >       55 </v>
  <v type="int" >       17 </v>
  <v type="int" >       33 </v>
  <v type="int" >       37 </v>
  <v type="int" >       54 </v>
  <v type="int" >       24 </v>
  <v type="int" >       57 </v>
  <v type="int" >       19 </v>
  <v type="int" >       56 </v>
  <v type="int" >       74 </v>
  <v type="int" >       49 </v>
  <v type="int" >       20 </v>
  <v type="int" >       25 </v>
  <v type="int" >       78 </v>
  <v type="int" >       85 </v>
  <v type="int" >       65 </v>
  <v type="int" >       59 </v>
  <v type="int" >       26 </v>
  <v type="int" >       21 </v>
  <v type="int" >       61 </v>
  <v type="int" >       67 </v>
  <v type="int" >       22 </v>
  <v type="int" >       66 </v>
  <v type="int" >       63 </v>
  <v type="int" >        7 </v>
  <v type="int" >       27 </v>
  <v type="int" >       62 </v>
  <v type="int" >       60 </v>
  <v type="int" >       47 </v>
  <v type="int" >       69 </v>
  <v type="int" >       51 </v>
  <v type="int" >       68 </v>
  <v type="int" >       48 </v>
  <v type="int" >       50 </v>
  <v type="int" >       12 </v>
  <v type="int" >       87 </v>
  <v type="int" >       86 </v>
  <v type="int" >        8 </v>
  <v type="int" >       11 </v>
  <v type="int" >       46 </v>
  <v type="int" >        9 </v>
  <v type="int" >       10 </v>
 </varray>
 <kpoints>
  <generation param="listgenerated">
   <i name="divisions" type="int">      20 </i>
   <v>       0.00000000       0.00000000       0.00000000 </v>
   <v>       0.50000000       0.00000000       0.00000000 </v>
   <v>       0.33333333       0.33333333       0.00000000 </v>
   <v>       0.00000000       0.00000000       0.00000000 </v>
  </generation>
  <varray name="kpointlist" >
   <v>       0.00000000       0.00000000       0.00000000 </v>
   <v>       0.02631579       0.00000000       0.00000000 </v>
   <v>       0.05263158       0.00000000       0.00000000 </v>
   <v>       0.07894737       0.00000000       0.00000000 </v>
   <v>       0.10526316       0.00000000       0.00000000 </v>
   <v>       0.13157895       0.00000000       0.00000000 </v>
   <v>       0.15789474       0.00000000       0.00000000 </v>
   <v>       0.18421053       0.00000000       0.00000000 </v>
   <v>       0.21052632       0.00000000       0.00000000 </v>
   <v>       0.23684211       0.00000000       0.00000000 </v>
   <v>       0.26315789       0.00000000       0.00000000 </v>
   <v>       0.28947368       0.00000000       0.00000000 </v>
   <v>       0.31578947       0.00000000       0.00000000 </v>
   <v>       0.34210526       0.00000000       0.00000000 </v>
   <v>       0.36842105       0.00000000       0.00000000 </v>
   <v>       0.39473684       0.00000000       0.00000000 </v>
   <v>       0.42105263       0.00000000       0.00000000 </v>
   <v>       0.44736842       0.00000000       0.00000000 </v>
   <v>       0.47368421       0.00000000       0.00000000 </v>
   <v>       0.50000000       0.00000000       0.00000000 </v>
   <v>       0.50000000       0.00000000       0.00000000 </v>
   <v>       0.49122807       0.01754386       0.00000000 </v>
   <v>       0.48245614       0.03508772       0.00000000 </v>
   <v>       0.47368421       0.05263158       0.00000000 </v>
   <v>       0.46491228       0.07017544       0.00000000 </v>
   <v>       0.45614035       0.08771930       0.00000000 </v>
   <v>       0.44736842       0.10526316       0.00000000 </v>
   <v>       0.43859649       0.12280702       0.00000000 </v>
   <v>       0.42982456       0.14035088       0.00000000 </v>
   <v>       0.42105263       0.15789474       0.00000000 </v>
   <v>       0.41228070       0.17543860       0.00000000 </v>
   <v>       0.40350877       0.19298246       0.00000000 </v>
   <v>       0.39473684       0.21052632       0.00000000 </v>
   <v>       0.38596491       0.22807018       0.00000000 </v>
   <v>       0.37719298       0.24561404       0.00000000 </v>
   <v>       0.36842105       0.26315789       0.00000000 </v>
   <v>       0.35964912       0.28070175       0.00000000 </v>
   <v>       0.35087719       0.29824561       0.00000000 </v>
   <v>       0.34210526       0.31578947       0.00000000 </v>
   <v>       0.33333333       0.33333333       0.00000000 </v>
   <v>       0.33333333       0.33333333       0.00000000 </v>
   <v>       0.31578947       0.31578947       0.00000000 </v>
   <v>       0.29824561       0.29824561       0.00000000 </v>
   <v>       0.28070175       0.28070175       0.00000000 </v>
   <v>       0.26315789       0.26315789       0.00000000 </v>
   <v>       0.24561404       0.24561404       0.00000000 </v>
   <v>       0.22807018       0.22807018       0.00000000 </v>
   <v>       0.21052632       0.21052632       0.00000000 </v>
   <v>       0.19298246       0.19298246       0.00000000 </v>
   <v>       0.17543860       0.17543860       0.00000000 </v>
   <v>       0.15789474       0.15789474       0.00000000 </v>
   <v>       0.14035088       0.14035088       0.00000000 </v>
   <v>       0.12280702       0.12280702       0.00000000 </v>
   <v>       0.10526316       0.10526316       0.00000000 </v>
   <v>       0.08771930       0.08771930       0.00000000 </v>
   <v>       0.07017544       0.07017544       0.00000000 </v>
   <v>       0.05263158       0.05263158       0.00000000 </v>
   <v>       0.03508772       0.03508772       0.00000000 </v>
   <v>       0.01754386       0.01754386       0.00000000 </v>
   <v>       0.00000000       0.00000000       0.00000000 </v>
  </varray>
  <varray name="weights" >
   <v>       0.01666667 </v>
   <v>       0.01666667 </v>
   <v>       0.01666667 </v>
   <v>       0.01666667 </v>
   <v>       0.01666667 </v>
   <v>       0.01666667 </v>
   <v>       0.01666667 </v>
   <v>       0.01666667 </v>
   <v>       0.01666667 </v>
   <v>       0.01666667 </v>
   <v>       0.01666667 </v>
   <v>       0.01666667 </v>
   <v>       0.01666667 </v>
   <v>       0.01666667 </v>
   <v>       0.01666667 </v>
   <v>       0.01666667 </v>
   <v>       0.01666667 </v>
   <v>       0.01666667 </v>
   <v>       0.01666667 </v>
   <v>       0.01666667 </v>
   <v>       0.01666667 </v>
   <v>       0.01666667 </v>
   <v>       0.01666667 </v>
   <v>       0.01666667 </v>
   <v>       0.01666667 </v>
   <v>       0.01666667 </v>
   <v>       0.01666667 </v>
   <v>       0.01666667 </v>
   <v>       0.01666667 </v>
   <v>       0.01666667 </v>
   <v>       0.01666667 </v>
   <v>       0.01666667 </v>
   <v>       0.01666667 </v>
   <v>       0.01666667 </v>
   <v>       0.01666667 </v>
   <v>       0.01666667 </v>
   <v>       0.01666667 </v>
   <v>       0.01666667 </v>
   <v>       0.01666667 </v>
   <v>       0.01666667 </v>
   <v>       0.01666667 </v>
   <v>       0.01666667 </v>
   <v>       0.01666667 </v>
   <v>       0.01666667 </v>
   <v>       0.01666667 </v>
   <v>       0.01666667 </v>
   <v>       0.01666667 </v>
   <v>       0.01666667 </v>
   <v>       0.01666667 </v>
   <v>       0.01666667 </v>
   <v>       0.01666667 </v>
   <v>       0.01666667 </v>
   <v>       0.01666667 </v>
   <v>       0.01666667 </v>
   <v>       0.01666667 </v>
   <v>       0.01666667 </v>
   <v>       0.01666667 </v>
   <v>       0.01666667 </v>
   <v>       0.01666667 </v>
   <v>       0.01666667 </v>
  </varray>
 </kpoints>
 <parameters>
  <separator name="general" >
   <i type="string" name="SYSTEM">Simulation for cell shape cell volume r</i>
   <i type="logical" name="LCOMPAT"> F  </i>
  </separator>
  <separator name="electronic" >
   <i type="string" name="PREC">high</i>
   <i name="ENMAX">    500.00000000</i>
   <i name="ENAUG">    644.87300000</i>
   <i name="EDIFF">      0.00001000</i>
   <i type="int" name="IALGO">    38</i>
   <i type="int" name="IWAVPR">    10</i>
   <i type="int" name="NBANDS">   160</i>
   <i name="NELECT">    228.00000000</i>
   <i type="int" name="TURBO">     0</i>
   <i type="int" name="IRESTART">     0</i>
   <i type="int" name="NREBOOT">     0</i>
   <i type="int" name="NMIN">     0</i>
   <i name="EREF">      0.00000000</i>
   <separator name="electronic smearing" >
    <i type="int" name="ISMEAR">     0</i>
    <i name="SIGMA">      0.01000000</i>
    <i name="KSPACING">      0.50000000</i>
    <i type="logical" name="KGAMMA"> T  </i>
   </separator>
   <separator name="electronic projectors" >
    <i type="logical" name="LREAL"> T  </i>
    <v name="ROPT">     -0.00040000     -0.00040000     -0.00040000</v>
    <i type="int" name="LMAXPAW">  -100</i>
    <i type="int" name="LMAXMIX">     2</i>
    <i type="logical" name="NLSPLINE"> F  </i>
   </separator>
   <separator name="electronic startup" >
    <i type="int" name="ISTART">     1</i>
    <i type="int" name="ICHARG">    11</i>
    <i type="int" name="INIWAV">     1</i>
   </separator>
   <separator name="electronic spin" >
    <i type="int" name="ISPIN">     1</i>
    <i type="logical" name="LNONCOLLINEAR"> F  </i>
    <v name="MAGMOM">      1.00000000      1.00000000      1.00000000      1.00000000      1.00000000      1.00000000      1.00000000      1.00000000      1.00000000      1.00000000      1.00000000      1.00000000      1.00000000      1.00000000      1.00000000      1.00000000      1.00000000      1.00000000      1.00000000      1.00000000
      1.00000000      1.00000000      1.00000000      1.00000000      1.00000000      1.00000000      1.00000000      1.00000000      1.00000000      1.00000000      1.00000000      1.00000000      1.00000000      1.00000000      1.00000000      1.00000000      1.00000000      1.00000000      1.00000000      1.00000000
      1.00000000      1.00000000      1.00000000      1.00000000      1.00000000      1.00000000      1.00000000      1.00000000      1.00000000      1.00000000      1.00000000      1.00000000      1.00000000      1.00000000      1.00000000      1.00000000      1.00000000      1.00000000      1.00000000      1.00000000
      1.00000000      1.00000000      1.00000000      1.00000000      1.00000000      1.00000000      1.00000000      1.00000000      1.00000000      1.00000000      1.00000000      1.00000000      1.00000000      1.00000000      1.00000000      1.00000000      1.00000000      1.00000000      1.00000000      1.00000000
      1.00000000      1.00000000      1.00000000      1.00000000      1.00000000      1.00000000      1.00000000</v>
    <i name="NUPDOWN">     -1.00000000</i>
    <i type="logical" name="LSORBIT"> F  </i>
    <v name="SAXIS">      0.00000000      0.00000000      1.00000000</v>
    <i type="logical" name="LSPIRAL"> F  </i>
    <v name="QSPIRAL">      0.00000000      0.00000000      0.00000000</v>
    <i type="logical" name="LZEROZ"> F  </i>
   </separator>
   <separator name="electronic exchange-correlation" >
    <i type="logical" name="LASPH"> F  </i>
    <i type="logical" name="LMETAGGA"> F  </i>
   </separator>
   <separator name="electronic convergence" >
    <i type="int" name="NELM">   200</i>
    <i type="int" name="NELMDL">     0</i>
    <i type="int" name="NELMIN">     2</i>
    <i name="ENINI">    500.00000000</i>
    <separator name="electronic convergence detail" >
     <i type="logical" name="LDIAG"> T  </i>
     <i type="logical" name="LSUBROT"> F  </i>
     <i name="WEIMIN">      0.00000000</i>
     <i name="EBREAK">      0.00000002</i>
     <i name="DEPER">      0.30000000</i>
     <i type="int" name="NRMM">     4</i>
     <i name="TIME">      0.40000000</i>
    </separator>
   </separator>
   <separator name="electronic mixer" >
    <i name="AMIX">      0.40000000</i>
    <i name="BMIX">      1.00000000</i>
    <i name="AMIN">      0.10000000</i>
    <i name="AMIX_MAG">      1.60000000</i>
    <i name="BMIX_MAG">      1.00000000</i>
    <separator name="electronic mixer details" >
     <i type="int" name="IMIX">     4</i>
     <i type="logical" name="MIXFIRST"> F  </i>
     <i type="int" name="MAXMIX">   -45</i>
     <i name="WC">    100.00000000</i>
     <i type="int" name="INIMIX">     1</i>
     <i type="int" name="MIXPRE">     1</i>
     <i type="int" name="MREMOVE">     5</i>
    </separator>
   </separator>
   <separator name="electronic dipolcorrection" >
    <i type="logical" name="LDIPOL"> F  </i>
    <i type="logical" name="LMONO"> F  </i>
    <i type="int" name="IDIPOL">     0</i>
    <i name="EPSILON">      1.00000000</i>
    <v name="DIPOL">   -100.00000000   -100.00000000   -100.00000000</v>
    <i name="EFIELD">      0.00000000</i>
   </separator>
  </separator>
  <separator name="grids" >
   <i type="int" name="NGX">   162</i>
   <i type="int" name="NGY">   162</i>
   <i type="int" name="NGZ">   150</i>
   <i type="int" name="NGXF">   250</i>
   <i type="int" name="NGYF">   250</i>
   <i type="int" name="NGZF">   224</i>
   <i type="logical" name="ADDGRID"> F  </i>
  </separator>
  <separator name="ionic" >
   <i type="int" name="NSW">     0</i>
   <i type="int" name="IBRION">    -1</i>
   <i type="int" name="MDALGO">     0</i>
   <i type="int" name="ISIF">     2</i>
   <i name="PSTRESS">      0.00000000</i>
   <i name="EDIFFG">     -0.01000000</i>
   <i type="int" name="NFREE">     0</i>
   <i name="POTIM">      0.30000000</i>
   <i name="SMASS">     -3.00000000</i>
   <i name="SCALEE">      1.00000000</i>
  </separator>
  <separator name="ionic md" >
   <i name="TEBEG">      0.00010000</i>
   <i name="TEEND">      0.00010000</i>
   <i type="int" name="NBLOCK">     1</i>
   <i type="int" name="KBLOCK">     1</i>
   <i type="int" name="NPACO">   256</i>
   <i name="APACO">     16.00000000</i>
  </separator>
  <separator name="symmetry" >
   <i type="int" name="ISYM">     2</i>
   <i name="SYMPREC">      0.00001000</i>
  </separator>
  <separator name="dos" >
   <i type="int" name="LORBIT">     0</i>
   <v name="RWIGS">     -1.00000000     -1.00000000     -1.00000000</v>
   <i type="int" name="NEDOS">   301</i>
   <i name="EMIN">     10.00000000</i>
   <i name="EMAX">    -10.00000000</i>
   <i name="EFERMI">      0.00000000</i>
  </separator>
  <separator name="writing" >
   <i type="int" name="NWRITE">     0</i>
   <i type="logical" name="LWAVE"> F  </i>
   <i type="logical" name="LDOWNSAMPLE"> F  </i>
   <i type="logical" name="LCHARG"> F  </i>
   <i type="logical" name="LPARD"> F  </i>
   <i type="logical" name="LVTOT"> F  </i>
   <i type="logical" name="LVHAR"> F  </i>
   <i type="logical" name="LELF"> F  </i>
   <i type="logical" name="LOPTICS"> F  </i>
   <v name="STM">      0.00000000      0.00000000      0.00000000      0.00000000      0.00000000      0.00000000      0.00000000</v>
  </separator>
  <separator name="performance" >
   <i type="int" name="NPAR">    16</i>
   <i type="int" name="NSIM">     4</i>
   <i type="int" name="NBLK">    -1</i>
   <i type="logical" name="LPLANE"> T  </i>
   <i type="logical" name="LSCALAPACK"> T  </i>
   <i type="logical" name="LSCAAWARE"> F  </i>
   <i type="logical" name="LSCALU"> F  </i>
   <i type="logical" name="LASYNC"> F  </i>
   <i type="logical" name="LORBITALREAL"> F  </i>
  </separator>
  <separator name="miscellaneous" >
   <i type="int" name="IDIOT">     3</i>
   <i type="int" name="ISPECIAL">     0</i>
   <i type="logical" name="LMUSIC"> F  </i>
   <v name="POMASS">     12.01100000      1.00000000     14.00100000</v>
   <v name="DARWINR">      0.00000000      0.00000000      0.00000000</v>
   <v name="DARWINV">      1.00000000      1.00000000      1.00000000</v>
   <i type="logical" name="LCORR"> T  </i>
  </separator>
  <i type="logical" name="GGA_COMPAT"> T  </i>
  <i type="logical" name="LBERRY"> F  </i>
  <i type="int" name="ICORELEVEL">     0</i>
  <i type="logical" name="LDAU"> F  </i>
  <i type="int" name="I_CONSTRAINED_M">     0</i>
  <separator name="electronic exchange-correlation" >
   <i type="string" name="GGA">PE</i>
   <i type="int" name="VOSKOWN">     0</i>
   <i type="logical" name="LHFCALC"> F  </i>
   <i type="string" name="PRECFOCK"></i>
   <i type="logical" name="LSYMGRAD"> F  </i>
   <i type="logical" name="LHFONE"> F  </i>
   <i type="logical" name="LRHFCALC"> F  </i>
   <i type="logical" name="LTHOMAS"> F  </i>
   <i type="logical" name="LMODELHF"> F  </i>
   <i name="ENCUT4O">     -1.00000000</i>
   <i type="int" name="EXXOEP">     0</i>
   <i type="int" name="FOURORBIT">     0</i>
   <i name="AEXX">      0.00000000</i>
   <i name="HFALPHA">      0.00000000</i>
   <i name="MCALPHA">      0.00000000</i>
   <i name="ALDAX">      1.00000000</i>
   <i name="AGGAX">      1.00000000</i>
   <i name="ALDAC">      1.00000000</i>
   <i name="AGGAC">      1.00000000</i>
   <i type="int" name="NKREDX">     1</i>
   <i type="int" name="NKREDY">     1</i>
   <i type="int" name="NKREDZ">     1</i>
   <i type="logical" name="SHIFTRED"> F  </i>
   <i type="logical" name="ODDONLY"> F  </i>
   <i type="logical" name="EVENONLY"> F  </i>
   <i type="int" name="LMAXFOCK">     0</i>
   <i type="int" name="NMAXFOCKAE">     0</i>
   <i type="logical" name="LFOCKAEDFT"> F  </i>
   <i name="HFSCREEN">      0.00000000</i>
   <i name="HFSCREENC">      0.00000000</i>
   <i type="int" name="NBANDSGWLOW">     0</i>
  </separator>
  <separator name="vdW DFT" >
   <i type="logical" name="LUSE_VDW"> F  </i>
   <i name="Zab_VDW">     -0.84910000</i>
   <i name="PARAM1">      0.12340000</i>
   <i name="PARAM2">      1.00000000</i>
   <i name="PARAM3">      0.00000000</i>
  </separator>
  <separator name="model GW" >
   <i type="int" name="MODEL_GW">     0</i>
   <i name="MODEL_EPS0">     58.54984155</i>
   <i name="MODEL_ALPHA">      1.00000000</i>
  </separator>
  <separator name="linear response parameters" >
   <i type="logical" name="LEPSILON"> F  </i>
   <i type="logical" name="LRPA"> F  </i>
   <i type="logical" name="LNABLA"> F  </i>
   <i type="logical" name="LVEL"> F  </i>
   <i type="int" name="KINTER">     0</i>
   <i name="CSHIFT">      0.10000000</i>
   <i name="OMEGAMAX">     -1.00000000</i>
   <i name="DEG_THRESHOLD">      0.00200000</i>
   <i name="RTIME">     -0.10000000</i>
   <i name="WPLASMAI">      0.00000000</i>
   <v name="DFIELD">      0.00000000      0.00000000      0.00000000</v>
   <v name="WPLASMA">      0.00000000      0.00000000      0.00000000      0.00000000      0.00000000      0.00000000      0.00000000      0.00000000      0.00000000</v>
  </separator>
  <separator name="orbital magnetization" >
   <i type="logical" name="NUCIND"> F  </i>
   <v name="MAGPOS">      0.00000000      0.00000000      0.00000000</v>
   <i type="logical" name="LNICSALL"> T  </i>
   <i type="logical" name="ORBITALMAG"> F  </i>
   <i type="logical" name="LMAGBLOCH"> F  </i>
   <i type="logical" name="LCHIMAG"> F  </i>
   <i type="logical" name="LGAUGE"> T  </i>
   <i type="int" name="MAGATOM">     0</i>
   <v name="MAGDIPOL">      0.00000000      0.00000000      0.00000000</v>
   <v name="AVECCONST">      0.00000000      0.00000000      0.00000000</v>
  </separator>
  <separator name="response functions" >
   <i type="logical" name="LADDER"> F  </i>
   <i type="logical" name="LRPAFORCE"> F  </i>
   <i type="logical" name="LFXC"> F  </i>
   <i type="logical" name="LHARTREE"> T  </i>
   <i type="int" name="IBSE">     0</i>
   <v type="int" name="KPOINT">    -1     0     0     0</v>
   <i type="logical" name="LTCTE"> F  </i>
   <i type="logical" name="LTETE"> F  </i>
   <i type="logical" name="LTRIPLET"> F  </i>
   <i type="logical" name="LFXCEPS"> F  </i>
   <i type="logical" name="LFXHEG"> F  </i>
   <i type="int" name="NATURALO">     2</i>
   <i type="logical" name="L2ORDER"> F  </i>
   <i type="logical" name="LMP2LT"> F  </i>
   <i type="logical" name="LUSEW"> F  </i>
   <i name="ENCUTGW">     -2.00000000</i>
   <i name="ENCUTGWSOFT">     -2.00000000</i>
   <i name="ENCUTLF">     -1.00000000</i>
   <i type="int" name="LMAXMP2">    -1</i>
   <i name="SCISSOR">      0.00000000</i>
   <i type="int" name="NOMEGA">     0</i>
   <i type="int" name="NOMEGAR">     0</i>
   <i type="int" name="NBANDSGW">    -1</i>
   <i type="int" name="NBANDSO">    -1</i>
   <i type="int" name="NBANDSV">    -1</i>
   <i type="int" name="NELM">   200</i>
   <i type="int" name="NELMHF">     1</i>
   <i type="int" name="DIM">     3</i>
   <i type="int" name="ANTIRES">     0</i>
   <i name="OMEGAMAX">    -30.00000000</i>
   <i name="OMEGAMIN">    -30.00000000</i>
   <i name="OMEGATL">   -200.00000000</i>
   <i type="int" name="OMEGAGRID">   140</i>
   <i name="CSHIFT">     -0.10000000</i>
   <i type="logical" name="SELFENERGY"> F  </i>
   <i type="logical" name="LSPECTRAL"> F  </i>
   <i type="logical" name="LSPECTRALGW"> F  </i>
   <i type="logical" name="LSINGLES"> F  </i>
   <i type="logical" name="LFERMIGW"> F  </i>
   <i type="logical" name="ODDONLYGW"> F  </i>
   <i type="logical" name="EVENONLYGW"> F  </i>
   <i type="int" name="NKREDLFX">     1</i>
   <i type="int" name="NKREDLFY">     1</i>
   <i type="int" name="NKREDLFZ">     1</i>
   <i type="int" name="MAXMEM">  2800</i>
   <i type="int" name="TELESCOPE">     0</i>
   <i type="int" name="TAUPAR">     1</i>
   <i type="int" name="OMEGAPAR">    -1</i>
   <i name="LAMBDA">      1.00000000</i>
  </separator>
  <separator name="External order field" >
   <i name="OFIELD_KAPPA">      0.00000000</i>
   <v name="OFIELD_K">      0.00000000      0.00000000      0.00000000</v>
   <i name="OFIELD_Q6_NEAR">      0.00000000</i>
   <i name="OFIELD_Q6_FAR">      0.00000000</i>
   <i name="OFIELD_A">      0.00000000</i>
  </separator>
  <separator name="solvation model" >
   <i type="logical" name="LSOL"> F  </i>
  </separator>
 </parameters>
 <atominfo>
  <atoms>      87 </atoms>
  <types>       3 </types>
  <array name="atoms" >
   <dimension dim="1">ion</dimension>
   <field type="string">element</field>
   <field type="int">atomtype</field>
   <set>
    <rc><c>C </c><c>   1</c></rc>
    <rc><c>C </c><c>   1</c></rc>
    <rc><c>C </c><c>   1</c></rc>
    <rc><c>C </c><c>   1</c></rc>
    <rc><c>C </c><c>   1</c></rc>
    <rc><c>C </c><c>   1</c></rc>
    <rc><c>C </c><c>   1</c></rc>
    <rc><c>C </c><c>   1</c></rc>
    <rc><c>C </c><c>   1</c></rc>
    <rc><c>C </c><c>   1</c></rc>
    <rc><c>C </c><c>   1</c></rc>
    <rc><c>C </c><c>   1</c></rc>
    <rc><c>C </c><c>   1</c></rc>
    <rc><c>C </c><c>   1</c></rc>
    <rc><c>C </c><c>   1</c></rc>
    <rc><c>C </c><c>   1</c></rc>
    <rc><c>C </c><c>   1</c></rc>
    <rc><c>C </c><c>   1</c></rc>
    <rc><c>C </c><c>   1</c></rc>
    <rc><c>C </c><c>   1</c></rc>
    <rc><c>C </c><c>   1</c></rc>
    <rc><c>C </c><c>   1</c></rc>
    <rc><c>C </c><c>   1</c></rc>
    <rc><c>C </c><c>   1</c></rc>
    <rc><c>C </c><c>   1</c></rc>
    <rc><c>C </c><c>   1</c></rc>
    <rc><c>C </c><c>   1</c></rc>
    <rc><c>C </c><c>   1</c></rc>
    <rc><c>C </c><c>   1</c></rc>
    <rc><c>C </c><c>   1</c></rc>
    <rc><c>C </c><c>   1</c></rc>
    <rc><c>C </c><c>   1</c></rc>
    <rc><c>C </c><c>   1</c></rc>
    <rc><c>C </c><c>   1</c></rc>
    <rc><c>C </c><c>   1</c></rc>
    <rc><c>C </c><c>   1</c></rc>
    <rc><c>C </c><c>   1</c></rc>
    <rc><c>C </c><c>   1</c></rc>
    <rc><c>C </c><c>   1</c></rc>
    <rc><c>H </c><c>   2</c></rc>
    <rc><c>H </c><c>   2</c></rc>
    <rc><c>H </c><c>   2</c></rc>
    <rc><c>H </c><c>   2</c></rc>
    <rc><c>H </c><c>   2</c></rc>
    <rc><c>H </c><c>   2</c></rc>
    <rc><c>H </c><c>   2</c></rc>
    <rc><c>H </c><c>   2</c></rc>
    <rc><c>H </c><c>   2</c></rc>
    <rc><c>H </c><c>   2</c></rc>
    <rc><c>H </c><c>   2</c></rc>
    <rc><c>H </c><c>   2</c></rc>
    <rc><c>H </c><c>   2</c></rc>
    <rc><c>H </c><c>   2</c></rc>
    <rc><c>H </c><c>   2</c></rc>
    <rc><c>H </c><c>   2</c></rc>
    <rc><c>H </c><c>   2</c></rc>
    <rc><c>H </c><c>   2</c></rc>
    <rc><c>H </c><c>   2</c></rc>
    <rc><c>H </c><c>   2</c></rc>
    <rc><c>H </c><c>   2</c></rc>
    <rc><c>H </c><c>   2</c></rc>
    <rc><c>H </c><c>   2</c></rc>
    <rc><c>H </c><c>   2</c></rc>
    <rc><c>H </c><c>   2</c></rc>
    <rc><c>H </c><c>   2</c></rc>
    <rc><c>H </c><c>   2</c></rc>
    <rc><c>H </c><c>   2</c></rc>
    <rc><c>H </c><c>   2</c></rc>
    <rc><c>H </c><c>   2</c></rc>
    <rc><c>H </c><c>   2</c></rc>
    <rc><c>H </c><c>   2</c></rc>
    <rc><c>H </c><c>   2</c></rc>
    <rc><c>H </c><c>   2</c></rc>
    <rc><c>H </c><c>   2</c></rc>
    <rc><c>H </c><c>   2</c></rc>
    <rc><c>H </c><c>   2</c></rc>
    <rc><c>H </c><c>   2</c></rc>
    <rc><c>H </c><c>   2</c></rc>
    <rc><c>H </c><c>   2</c></rc>
    <rc><c>H </c><c>   2</c></rc>
    <rc><c>H </c><c>   2</c></rc>
    <rc><c>N </c><c>   3</c></rc>
    <rc><c>N </c><c>   3</c></rc>
    <rc><c>N </c><c>   3</c></rc>
    <rc><c>N </c><c>   3</c></rc>
    <rc><c>N </c><c>   3</c></rc>
    <rc><c>N </c><c>   3</c></rc>
   </set>
  </array>
  <array name="atomtypes" >
   <dimension dim="1">type</dimension>
   <field type="int">atomspertype</field>
   <field type="string">element</field>
   <field>mass</field>
   <field>valence</field>
   <field type="string">pseudopotential</field>
   <set>
    <rc><c>  39</c><c>C </c><c>     12.01100000</c><c>      4.00000000</c><c>  PAW_PBE C 08Apr2002                   </c></rc>
    <rc><c>  42</c><c>H </c><c>      1.00000000</c><c>      1.00000000</c><c>  PAW_PBE H 15Jun2001                   </c></rc>
    <rc><c>   6</c><c>N </c><c>     14.00100000</c><c>      5.00000000</c><c>  PAW_PBE N 08Apr2002                   </c></rc>
   </set>
  </array>
 </atominfo>
 <structure name="initialpos" >
  <crystal>
   <varray name="basis" >
    <v>      22.13943582       0.00000003       0.00000000 </v>
    <v>     -11.06971793      19.17331383       0.00000000 </v>
    <v>       0.00000000       0.00000000      20.00000000 </v>
   </varray>
   <i name="volume">   8489.72702410 </i>
   <varray name="rec_basis" >
    <v>       0.04516827       0.02607791       0.00000000 </v>
    <v>      -0.00000000       0.05215582       0.00000000 </v>
    <v>       0.00000000       0.00000000       0.05000000 </v>
   </varray>
  </crystal>
  <varray name="positions" >
   <v>       0.36954121       0.62961589       0.53121501 </v>
   <v>       0.29583325       0.59328223       0.53103977 </v>
   <v>       0.26007468       0.63045879       0.53121501 </v>
   <v>       0.29744898       0.70416675       0.53103977 </v>
   <v>       0.37038411       0.73992532       0.53121501 </v>
   <v>       0.40671777       0.70255102       0.53103977 </v>
   <v>       0.63524535       0.37496447       0.48141633 </v>
   <v>       0.70874797       0.40654286       0.48156671 </v>
   <v>       0.73971912       0.36475465       0.48141633 </v>
   <v>       0.69779490       0.29125203       0.48156671 </v>
   <v>       0.62503553       0.26028088       0.48141633 </v>
   <v>       0.59345714       0.30220510       0.48156671 </v>
   <v>       0.51713953       0.54190718       0.56284376 </v>
   <v>       0.52956476       0.48591095       0.55822175 </v>
   <v>       0.51845963       0.45158335       0.49607647 </v>
   <v>       0.55291151       0.46263605       0.61895069 </v>
   <v>       0.53187534       0.39161710       0.48753859 </v>
   <v>       0.45809282       0.97523235       0.56284376 </v>
   <v>       0.51408905       0.04365381       0.55822175 </v>
   <v>       0.54841665       0.06687628       0.49607647 </v>
   <v>       0.53736395       0.09027546       0.61895069 </v>
   <v>       0.60838290       0.14025824       0.48753859 </v>
   <v>       0.02476765       0.48286047       0.56284376 </v>
   <v>       0.95634619       0.47043524       0.55822175 </v>
   <v>       0.93312372       0.48154037       0.49607647 </v>
   <v>       0.90972454       0.44708849       0.61895069 </v>
   <v>       0.85974176       0.46812466       0.48753859 </v>
   <v>       0.49459834       0.56476229       0.50803658 </v>
   <v>       0.49637522       0.47467737       0.44110203 </v>
   <v>       0.48441911       0.53064503       0.44666709 </v>
   <v>       0.47704447       0.62195849       0.51569932 </v>
   <v>       0.43523771       0.92983605       0.50803658 </v>
   <v>       0.52532263       0.02169785       0.44110203 </v>
   <v>       0.46935497       0.95377408       0.44666709 </v>
   <v>       0.37804151       0.85508598       0.51569932 </v>
   <v>       0.07016395       0.50540166       0.50803658 </v>
   <v>       0.97830215       0.50362478       0.44110203 </v>
   <v>       0.04622592       0.51558089       0.44666709 </v>
   <v>       0.14491402       0.52295553       0.51569932 </v>
   <v>       0.26869902       0.73226640       0.53135933 </v>
   <v>       0.46356738       0.73130098       0.53135933 </v>
   <v>       0.26773360       0.53643262       0.53135933 </v>
   <v>       0.37382135       0.54041648       0.51907457 </v>
   <v>       0.45958352       0.83340487       0.51907457 </v>
   <v>       0.16659513       0.62617865       0.51907457 </v>
   <v>       0.72282319       0.25956989       0.48081020 </v>
   <v>       0.53674669       0.27717681       0.48081020 </v>
   <v>       0.74043011       0.46325331       0.48081020 </v>
   <v>       0.63812256       0.46942647       0.48168061 </v>
   <v>       0.53057353       0.16869610       0.48168061 </v>
   <v>       0.83130390       0.36187744       0.48168061 </v>
   <v>       0.52481960       0.56836607       0.61087142 </v>
   <v>       0.56531650       0.49940797       0.66046781 </v>
   <v>       0.59911097       0.45786732       0.60852371 </v>
   <v>       0.51179873       0.41103730       0.63624933 </v>
   <v>       0.51128139       0.35612828       0.53110513 </v>
   <v>       0.50306280       0.36052779       0.44331468 </v>
   <v>       0.43163393       0.95645353       0.61087142 </v>
   <v>       0.50059203       0.06590853       0.66046781 </v>
   <v>       0.54213268       0.14124366       0.60852371 </v>
   <v>       0.58896270       0.10076143       0.63624933 </v>
   <v>       0.64387172       0.15515311       0.53110513 </v>
   <v>       0.63947221       0.14253501       0.44331468 </v>
   <v>       0.04354647       0.47518040       0.61087142 </v>
   <v>       0.93409147       0.43468350       0.66046781 </v>
   <v>       0.85875634       0.40088903       0.60852371 </v>
   <v>       0.89923857       0.48820127       0.63624933 </v>
   <v>       0.84484689       0.48871861       0.53110513 </v>
   <v>       0.85746499       0.49693720       0.44331468 </v>
   <v>       0.48851504       0.44809030       0.39317464 </v>
   <v>       0.46711371       0.54797358       0.40330120 </v>
   <v>       0.48952107       0.65277152       0.46889741 </v>
   <v>       0.50913882       0.65827110       0.55565283 </v>
   <v>       0.55190970       0.04042474       0.39317464 </v>
   <v>       0.45202642       0.91914013       0.40330120 </v>
   <v>       0.34722848       0.83674955       0.46889741 </v>
   <v>       0.34172890       0.85086772       0.55565283 </v>
   <v>       0.95957526       0.51148496       0.39317464 </v>
   <v>       0.08085987       0.53288629       0.40330120 </v>
   <v>       0.16325045       0.51047893       0.46889741 </v>
   <v>       0.14913228       0.49086118       0.55565283 </v>
   <v>       0.40347983       0.59119155       0.53254875 </v>
   <v>       0.40880845       0.81228828       0.53254875 </v>
   <v>       0.18771172       0.59652017       0.53254875 </v>
   <v>       0.60589061       0.41717541       0.48052437 </v>
   <v>       0.58282459       0.18871520       0.48052437 </v>
   <v>       0.81128480       0.39410939       0.48052437 </v>
  </varray>
 </structure>
 <calculation>
  <scstep>
   <time name="dav">  206.54  208.81</time>
   <time name="total">  206.67  208.95</time>
   <energy>
    <i name="alphaZ">     27.73000700 </i>
    <i name="ewald">  23775.11925059 </i>
    <i name="hartreedc"> -30229.40380936 </i>
    <i name="XCdc">    776.63569326 </i>
    <i name="pawpsdc">  19851.65955845 </i>
    <i name="pawaedc"> -19888.33878113 </i>
    <i name="eentropy">     -0.00000000 </i>
    <i name="bandstr">  -2719.38919137 </i>
    <i name="atom">   7850.42759685 </i>
    <i name="e_fr_energy">   -555.55967571 </i>
    <i name="e_wo_entrp">   -555.55967571 </i>
    <i name="e_0_energy">   -555.55967571 </i>
   </energy>
  </scstep>
  <scstep>
   <time name="dav">  235.15  237.64</time>
   <time name="total">  235.15  237.64</time>
   <energy>
    <i name="e_fr_energy">   -556.09038697 </i>
    <i name="e_wo_entrp">   -556.09038697 </i>
    <i name="e_0_energy">   -556.09038697 </i>
   </energy>
  </scstep>
  <scstep>
   <time name="dav">  260.22  263.08</time>
   <time name="total">  260.22  263.08</time>
   <energy>
    <i name="e_fr_energy">   -556.10722522 </i>
    <i name="e_wo_entrp">   -556.10722522 </i>
    <i name="e_0_energy">   -556.10722522 </i>
   </energy>
  </scstep>
  <scstep>
   <time name="dav">  234.08  236.74</time>
   <time name="total">  234.08  236.75</time>
   <energy>
    <i name="e_fr_energy">   -556.10760001 </i>
    <i name="e_wo_entrp">   -556.10760001 </i>
    <i name="e_0_energy">   -556.10760001 </i>
   </energy>
  </scstep>
  <scstep>
   <time name="dav">  226.32  228.79</time>
   <time name="total">  226.32  228.80</time>
   <energy>
    <i name="e_fr_energy">   -556.10761463 </i>
    <i name="e_wo_entrp">   -556.10761463 </i>
    <i name="e_0_energy">   -556.10761463 </i>
   </energy>
  </scstep>
  <scstep>
   <time name="dav">  178.93  180.91</time>
   <time name="total">  178.94  180.92</time>
   <energy>
    <i name="alphaZ">     27.73000700 </i>
    <i name="ewald">  23775.11925059 </i>
    <i name="hartreedc"> -30229.40380936 </i>
    <i name="XCdc">    776.63569326 </i>
    <i name="pawpsdc">  19851.65955845 </i>
    <i name="pawaedc"> -19888.33878113 </i>
    <i name="eentropy">     -0.00000000 </i>
    <i name="bandstr">  -2719.93713083 </i>
    <i name="atom">   7850.42759685 </i>
    <i name="e_fr_energy">   -556.10761517 </i>
    <i name="e_wo_entrp">   -556.10761517 </i>
    <i name="e_0_energy">   -556.10761517 </i>
   </energy>
  </scstep>
  <structure>
   <crystal>
    <varray name="basis" >
     <v>      22.13943582       0.00000003       0.00000000 </v>
     <v>     -11.06971793      19.17331383       0.00000000 </v>
     <v>       0.00000000       0.00000000      20.00000000 </v>
    </varray>
    <i name="volume">   8489.72702410 </i>
    <varray name="rec_basis" >
     <v>       0.04516827       0.02607791       0.00000000 </v>
     <v>      -0.00000000       0.05215582       0.00000000 </v>
     <v>       0.00000000       0.00000000       0.05000000 </v>
    </varray>
   </crystal>
   <varray name="positions" >
    <v>       0.36954121       0.62961589       0.53121501 </v>
    <v>       0.29583325       0.59328223       0.53103977 </v>
    <v>       0.26007468       0.63045879       0.53121501 </v>
    <v>       0.29744898       0.70416675       0.53103977 </v>
    <v>       0.37038411       0.73992532       0.53121501 </v>
    <v>       0.40671777       0.70255102       0.53103977 </v>
    <v>       0.63524535       0.37496447       0.48141633 </v>
    <v>       0.70874797       0.40654286       0.48156671 </v>
    <v>       0.73971912       0.36475465       0.48141633 </v>
    <v>       0.69779490       0.29125203       0.48156671 </v>
    <v>       0.62503553       0.26028088       0.48141633 </v>
    <v>       0.59345714       0.30220510       0.48156671 </v>
    <v>       0.51713953       0.54190718       0.56284376 </v>
    <v>       0.52956476       0.48591095       0.55822175 </v>
    <v>       0.51845963       0.45158335       0.49607647 </v>
    <v>       0.55291151       0.46263605       0.61895069 </v>
    <v>       0.53187534       0.39161710       0.48753859 </v>
    <v>       0.45809282       0.97523235       0.56284376 </v>
    <v>       0.51408905       0.04365381       0.55822175 </v>
    <v>       0.54841665       0.06687628       0.49607647 </v>
    <v>       0.53736395       0.09027546       0.61895069 </v>
    <v>       0.60838290       0.14025824       0.48753859 </v>
    <v>       0.02476765       0.48286047       0.56284376 </v>
    <v>       0.95634619       0.47043524       0.55822175 </v>
    <v>       0.93312372       0.48154037       0.49607647 </v>
    <v>       0.90972454       0.44708849       0.61895069 </v>
    <v>       0.85974176       0.46812466       0.48753859 </v>
    <v>       0.49459834       0.56476229       0.50803658 </v>
    <v>       0.49637522       0.47467737       0.44110203 </v>
    <v>       0.48441911       0.53064503       0.44666709 </v>
    <v>       0.47704447       0.62195849       0.51569932 </v>
    <v>       0.43523771       0.92983605       0.50803658 </v>
    <v>       0.52532263       0.02169785       0.44110203 </v>
    <v>       0.46935497       0.95377408       0.44666709 </v>
    <v>       0.37804151       0.85508598       0.51569932 </v>
    <v>       0.07016395       0.50540166       0.50803658 </v>
    <v>       0.97830215       0.50362478       0.44110203 </v>
    <v>       0.04622592       0.51558089       0.44666709 </v>
    <v>       0.14491402       0.52295553       0.51569932 </v>
    <v>       0.26869902       0.73226640       0.53135933 </v>
    <v>       0.46356738       0.73130098       0.53135933 </v>
    <v>       0.26773360       0.53643262       0.53135933 </v>
    <v>       0.37382135       0.54041648       0.51907457 </v>
    <v>       0.45958352       0.83340487       0.51907457 </v>
    <v>       0.16659513       0.62617865       0.51907457 </v>
    <v>       0.72282319       0.25956989       0.48081020 </v>
    <v>       0.53674669       0.27717681       0.48081020 </v>
    <v>       0.74043011       0.46325331       0.48081020 </v>
    <v>       0.63812256       0.46942647       0.48168061 </v>
    <v>       0.53057353       0.16869610       0.48168061 </v>
    <v>       0.83130390       0.36187744       0.48168061 </v>
    <v>       0.52481960       0.56836607       0.61087142 </v>
    <v>       0.56531650       0.49940797       0.66046781 </v>
    <v>       0.59911097       0.45786732       0.60852371 </v>
    <v>       0.51179873       0.41103730       0.63624933 </v>
    <v>       0.51128139       0.35612828       0.53110513 </v>
    <v>       0.50306280       0.36052779       0.44331468 </v>
    <v>       0.43163393       0.95645353       0.61087142 </v>
    <v>       0.50059203       0.06590853       0.66046781 </v>
    <v>       0.54213268       0.14124366       0.60852371 </v>
    <v>       0.58896270       0.10076143       0.63624933 </v>
    <v>       0.64387172       0.15515311       0.53110513 </v>
    <v>       0.63947221       0.14253501       0.44331468 </v>
    <v>       0.04354647       0.47518040       0.61087142 </v>
    <v>       0.93409147       0.43468350       0.66046781 </v>
    <v>       0.85875634       0.40088903       0.60852371 </v>
    <v>       0.89923857       0.48820127       0.63624933 </v>
    <v>       0.84484689       0.48871861       0.53110513 </v>
    <v>       0.85746499       0.49693720       0.44331468 </v>
    <v>       0.48851504       0.44809030       0.39317464 </v>
    <v>       0.46711371       0.54797358       0.40330120 </v>
    <v>       0.48952107       0.65277152       0.46889741 </v>
    <v>       0.50913882       0.65827110       0.55565283 </v>
    <v>       0.55190970       0.04042474       0.39317464 </v>
    <v>       0.45202642       0.91914013       0.40330120 </v>
    <v>       0.34722848       0.83674955       0.46889741 </v>
    <v>       0.34172890       0.85086772       0.55565283 </v>
    <v>       0.95957526       0.51148496       0.39317464 </v>
    <v>       0.08085987       0.53288629       0.40330120 </v>
    <v>       0.16325045       0.51047893       0.46889741 </v>
    <v>       0.14913228       0.49086118       0.55565283 </v>
    <v>       0.40347983       0.59119155       0.53254875 </v>
    <v>       0.40880845       0.81228828       0.53254875 </v>
    <v>       0.18771172       0.59652017       0.53254875 </v>
    <v>       0.60589061       0.41717541       0.48052437 </v>
    <v>       0.58282459       0.18871520       0.48052437 </v>
    <v>       0.81128480       0.39410939       0.48052437 </v>
   </varray>
  </structure>
  <varray name="forces" >
   <v>      -0.00015148      -0.00371929       0.00041849 </v>
   <v>      -0.00239878      -0.00017372      -0.00078393 </v>
   <v>      -0.00314526       0.00199083       0.00041849 </v>
   <v>       0.00104895       0.00216426      -0.00078393 </v>
   <v>       0.00329674       0.00172846       0.00041849 </v>
   <v>       0.00134983      -0.00199054      -0.00078393 </v>
   <v>       0.00299070      -0.00608258      -0.00069987 </v>
   <v>       0.00003160      -0.00000490       0.00385215 </v>
   <v>      -0.00676302       0.00045127      -0.00069987 </v>
   <v>      -0.00002005      -0.00002491       0.00385215 </v>
   <v>       0.00377232       0.00563131      -0.00069987 </v>
   <v>      -0.00001155       0.00002982       0.00385215 </v>
   <v>       0.00210483      -0.00357101       0.00023659 </v>
   <v>       0.00265838      -0.00603153      -0.00080769 </v>
   <v>       0.00044264       0.00022270       0.00676242 </v>
   <v>      -0.00473776       0.00080376      -0.00482711 </v>
   <v>      -0.00911113       0.00181719      -0.00273051 </v>
   <v>       0.00204018       0.00360834       0.00023659 </v>
   <v>       0.00389427       0.00531799      -0.00080769 </v>
   <v>      -0.00041419       0.00027199       0.00676242 </v>
   <v>       0.00167280      -0.00450490      -0.00482711 </v>
   <v>       0.00298183      -0.00879906      -0.00273051 </v>
   <v>      -0.00414500      -0.00003733       0.00023659 </v>
   <v>      -0.00655265       0.00071354      -0.00080769 </v>
   <v>      -0.00002846      -0.00049469       0.00676242 </v>
   <v>       0.00306496       0.00370113      -0.00482711 </v>
   <v>       0.00612930       0.00698187      -0.00273051 </v>
   <v>       0.00080204       0.00174499      -0.00169238 </v>
   <v>      -0.00082610       0.00018148       0.00031439 </v>
   <v>       0.00312883      -0.00255101      -0.00132580 </v>
   <v>      -0.00271855       0.00007893       0.00653652 </v>
   <v>      -0.00191223      -0.00017791      -0.00169238 </v>
   <v>       0.00025589      -0.00080617       0.00031439 </v>
   <v>       0.00064482       0.00398515      -0.00132580 </v>
   <v>       0.00129092      -0.00239379       0.00653652 </v>
   <v>       0.00111019      -0.00156708      -0.00169238 </v>
   <v>       0.00057022       0.00062469       0.00031439 </v>
   <v>      -0.00377365      -0.00143414      -0.00132580 </v>
   <v>       0.00142763       0.00231487       0.00653652 </v>
   <v>       0.00058669      -0.00010543       0.00010122 </v>
   <v>      -0.00038465      -0.00045538       0.00010122 </v>
   <v>      -0.00020204       0.00056081       0.00010122 </v>
   <v>       0.00133511       0.00431078       0.00055195 </v>
   <v>      -0.00440080      -0.00099916       0.00055195 </v>
   <v>       0.00306570      -0.00331163       0.00055195 </v>
   <v>       0.00129614       0.00267222       0.00252847 </v>
   <v>       0.00166614      -0.00245860       0.00252847 </v>
   <v>      -0.00296228      -0.00021362       0.00252847 </v>
   <v>      -0.00090032       0.00121179      -0.00722545 </v>
   <v>      -0.00059928      -0.00138559      -0.00722545 </v>
   <v>       0.00149960       0.00017380      -0.00722545 </v>
   <v>      -0.00186177       0.00080183       0.00334526 </v>
   <v>      -0.00032555      -0.00291172       0.00241585 </v>
   <v>       0.00031985      -0.00321734      -0.00134493 </v>
   <v>      -0.00183248      -0.00492983      -0.00024817 </v>
   <v>      -0.00774783      -0.00623340      -0.00092151 </v>
   <v>       0.00313992       0.00071869      -0.00014748 </v>
   <v>       0.00023648      -0.00201326       0.00334526 </v>
   <v>       0.00268440       0.00117392       0.00241585 </v>
   <v>       0.00262638       0.00188567      -0.00134493 </v>
   <v>       0.00518560       0.00087794      -0.00024817 </v>
   <v>       0.00927220      -0.00359312      -0.00092151 </v>
   <v>      -0.00219236       0.00235990      -0.00014748 </v>
   <v>       0.00162529       0.00121142       0.00334526 </v>
   <v>      -0.00235885       0.00173780       0.00241585 </v>
   <v>      -0.00294622       0.00133168      -0.00134493 </v>
   <v>      -0.00335311       0.00405189      -0.00024817 </v>
   <v>      -0.00152436       0.00982652      -0.00092151 </v>
   <v>      -0.00094756      -0.00307859      -0.00014748 </v>
   <v>       0.00081633       0.00058421      -0.00194865 </v>
   <v>       0.00219210       0.00200320       0.00095254 </v>
   <v>       0.00235414       0.00216221      -0.00211940 </v>
   <v>      -0.00309051      -0.00463635      -0.00219446 </v>
   <v>      -0.00091410       0.00041486      -0.00194865 </v>
   <v>      -0.00283087       0.00089681       0.00095254 </v>
   <v>      -0.00304960       0.00095764      -0.00211940 </v>
   <v>       0.00556045      -0.00035829      -0.00219446 </v>
   <v>       0.00009777      -0.00099907      -0.00194865 </v>
   <v>       0.00063877      -0.00290001       0.00095254 </v>
   <v>       0.00069546      -0.00311985      -0.00211940 </v>
   <v>      -0.00246994       0.00499463      -0.00219446 </v>
   <v>       0.00098177       0.00047567       0.00161560 </v>
   <v>      -0.00090283       0.00061240       0.00161560 </v>
   <v>      -0.00007894      -0.00108807       0.00161560 </v>
   <v>       0.00199220       0.00211861      -0.00061413 </v>
   <v>      -0.00283087       0.00066599      -0.00061413 </v>
   <v>       0.00083867      -0.00278460      -0.00061413 </v>
  </varray>
  <varray name="stress" >
   <v>       0.07641064      -0.00000000      -0.00000000 </v>
   <v>       0.00000000       0.07641064      -0.00000000 </v>
   <v>       0.00000000       0.00000000      -0.22065282 </v>
  </varray>
  <energy>
   <i name="e_fr_energy">   -557.75596891 </i>
   <i name="e_wo_entrp">   -557.75596891 </i>
   <i name="e_0_energy">     -0.00000000 </i>
  </energy>
  <time name="totalsc"> 1588.07 1606.17</time>
  <eigenvalues>
   <array>
    <dimension dim="1">band</dimension>
    <dimension dim="2">kpoint</dimension>
    <dimension dim="3">spin</dimension>
    <field>eigene</field>
    <field>occ</field>
    <set>
     <set comment="spin 1">
      <set comment="kpoint 1">
       <r>  -22.9126    1.0000 </r>
       <r>  -22.8489    1.0000 </r>
       <r>  -22.6997    1.0000 </r>
       <r>  -22.6995    1.0000 </r>
       <r>  -22.6245    1.0000 </r>
       <r>  -22.6243    1.0000 </r>
       <r>  -21.1029    1.0000 </r>
       <r>  -21.0187    1.0000 </r>
       <r>  -21.0183    1.0000 </r>
       <r>  -19.9535    1.0000 </r>
       <r>  -19.5678    1.0000 </r>
       <r>  -19.2069    1.0000 </r>
       <r>  -19.2066    1.0000 </r>
       <r>  -18.7614    1.0000 </r>
       <r>  -18.6049    1.0000 </r>
       <r>  -18.6047    1.0000 </r>
       <r>  -18.3580    1.0000 </r>
       <r>  -17.8646    1.0000 </r>
       <r>  -17.8645    1.0000 </r>
       <r>  -17.1100    1.0000 </r>
       <r>  -17.1099    1.0000 </r>
       <r>  -16.8859    1.0000 </r>
       <r>  -16.5946    1.0000 </r>
       <r>  -16.5945    1.0000 </r>
       <r>  -16.5503    1.0000 </r>
       <r>  -16.3221    1.0000 </r>
       <r>  -16.3221    1.0000 </r>
       <r>  -15.6167    1.0000 </r>
       <r>  -15.6165    1.0000 </r>
       <r>  -15.5702    1.0000 </r>
       <r>  -14.4698    1.0000 </r>
       <r>  -14.4695    1.0000 </r>
       <r>  -14.4510    1.0000 </r>
       <r>  -14.1677    1.0000 </r>
       <r>  -14.1677    1.0000 </r>
       <r>  -13.8707    1.0000 </r>
       <r>  -13.8706    1.0000 </r>
       <r>  -13.7629    1.0000 </r>
       <r>  -13.3480    1.0000 </r>
       <r>  -13.3478    1.0000 </r>
       <r>  -13.1158    1.0000 </r>
       <r>  -12.8872    1.0000 </r>
       <r>  -12.1063    1.0000 </r>
       <r>  -11.9879    1.0000 </r>
       <r>  -11.9877    1.0000 </r>
       <r>  -11.8496    1.0000 </r>
       <r>  -11.6362    1.0000 </r>
       <r>  -11.6360    1.0000 </r>
       <r>  -11.6323    1.0000 </r>
       <r>  -11.2721    1.0000 </r>
       <r>  -11.2720    1.0000 </r>
       <r>  -11.2576    1.0000 </r>
       <r>  -11.0148    1.0000 </r>
       <r>  -10.7364    1.0000 </r>
       <r>  -10.6968    1.0000 </r>
       <r>  -10.6968    1.0000 </r>
       <r>  -10.5439    1.0000 </r>
       <r>  -10.5438    1.0000 </r>
       <r>  -10.3878    1.0000 </r>
       <r>  -10.2564    1.0000 </r>
       <r>  -10.2562    1.0000 </r>
       <r>  -10.2276    1.0000 </r>
       <r>  -10.1717    1.0000 </r>
       <r>  -10.1716    1.0000 </r>
       <r>   -9.9936    1.0000 </r>
       <r>   -9.9934    1.0000 </r>
       <r>   -9.8340    1.0000 </r>
       <r>   -9.7792    1.0000 </r>
       <r>   -9.7792    1.0000 </r>
       <r>   -9.7640    1.0000 </r>
       <r>   -9.6552    1.0000 </r>
       <r>   -9.6550    1.0000 </r>
       <r>   -9.4803    1.0000 </r>
       <r>   -9.3160    1.0000 </r>
       <r>   -9.3158    1.0000 </r>
       <r>   -9.0816    1.0000 </r>
       <r>   -9.0570    1.0000 </r>
       <r>   -8.9559    1.0000 </r>
       <r>   -8.8961    1.0000 </r>
       <r>   -8.8959    1.0000 </r>
       <r>   -8.8927    1.0000 </r>
       <r>   -8.8208    1.0000 </r>
       <r>   -8.8206    1.0000 </r>
       <r>   -8.4757    1.0000 </r>
       <r>   -8.3766    1.0000 </r>
       <r>   -8.3764    1.0000 </r>
       <r>   -8.2335    1.0000 </r>
       <r>   -8.1921    1.0000 </r>
       <r>   -7.9993    1.0000 </r>
       <r>   -7.9992    1.0000 </r>
       <r>   -7.8349    1.0000 </r>
       <r>   -7.8348    1.0000 </r>
       <r>   -7.7733    1.0000 </r>
       <r>   -7.7730    1.0000 </r>
       <r>   -7.6718    1.0000 </r>
       <r>   -7.6335    1.0000 </r>
       <r>   -7.6080    1.0000 </r>
       <r>   -7.6078    1.0000 </r>
       <r>   -6.8613    1.0000 </r>
       <r>   -6.8611    1.0000 </r>
       <r>   -6.8076    1.0000 </r>
       <r>   -6.8074    1.0000 </r>
       <r>   -5.8949    1.0000 </r>
       <r>   -5.8744    1.0000 </r>
       <r>   -5.8740    1.0000 </r>
       <r>   -5.7160    1.0000 </r>
       <r>   -5.6796    1.0000 </r>
       <r>   -5.6793    1.0000 </r>
       <r>   -4.6663    1.0000 </r>
       <r>   -4.5812    1.0000 </r>
       <r>   -3.8335    1.0000 </r>
       <r>   -3.8334    1.0000 </r>
       <r>   -3.7585    1.0000 </r>
       <r>   -3.7584    1.0000 </r>
       <r>   -1.0189    0.0000 </r>
       <r>   -0.9978    0.0000 </r>
       <r>   -0.9975    0.0000 </r>
       <r>   -0.8912    0.0000 </r>
       <r>   -0.8908    0.0000 </r>
       <r>   -0.8564    0.0000 </r>
       <r>   -0.3245    0.0000 </r>
       <r>   -0.0629    0.0000 </r>
       <r>   -0.0627    0.0000 </r>
       <r>   -0.0293    0.0000 </r>
       <r>    0.0268    0.0000 </r>
       <r>    0.0270    0.0000 </r>
       <r>    0.1595    0.0000 </r>
       <r>    0.3055    0.0000 </r>
       <r>    0.3055    0.0000 </r>
       <r>    0.3279    0.0000 </r>
       <r>    0.3280    0.0000 </r>
       <r>    0.4044    0.0000 </r>
       <r>    0.4045    0.0000 </r>
       <r>    0.4579    0.0000 </r>
       <r>    0.4624    0.0000 </r>
       <r>    0.4625    0.0000 </r>
       <r>    0.5050    0.0000 </r>
       <r>    0.6569    0.0000 </r>
       <r>    0.6784    0.0000 </r>
       <r>    0.7809    0.0000 </r>
       <r>    0.7812    0.0000 </r>
       <r>    0.8815    0.0000 </r>
       <r>    0.8817    0.0000 </r>
       <r>    0.9014    0.0000 </r>
       <r>    0.9017    0.0000 </r>
       <r>    0.9207    0.0000 </r>
       <r>    0.9446    0.0000 </r>
       <r>    0.9665    0.0000 </r>
       <r>    0.9670    0.0000 </r>
       <r>    1.0102    0.0000 </r>
       <r>    1.0432    0.0000 </r>
       <r>    1.1526    0.0000 </r>
       <r>    1.2131    0.0000 </r>
       <r>    1.2174    0.0000 </r>
       <r>    1.2176    0.0000 </r>
       <r>    1.3056    0.0000 </r>
       <r>    1.3392    0.0000 </r>
       <r>    1.3399    0.0000 </r>
       <r>    1.3922    0.0000 </r>
       <r>    1.3927    0.0000 </r>
      </set>
      <set comment="kpoint 2">
       <r>  -22.9126    1.0000 </r>
       <r>  -22.8489    1.0000 </r>
       <r>  -22.6997    1.0000 </r>
       <r>  -22.6995    1.0000 </r>
       <r>  -22.6245    1.0000 </r>
       <r>  -22.6243    1.0000 </r>
       <r>  -21.1028    1.0000 </r>
       <r>  -21.0188    1.0000 </r>
       <r>  -21.0184    1.0000 </r>
       <r>  -19.9531    1.0000 </r>
       <r>  -19.5690    1.0000 </r>
       <r>  -19.2067    1.0000 </r>
       <r>  -19.2054    1.0000 </r>
       <r>  -18.7617    1.0000 </r>
       <r>  -18.6049    1.0000 </r>
       <r>  -18.6046    1.0000 </r>
       <r>  -18.3591    1.0000 </r>
       <r>  -17.8646    1.0000 </r>
       <r>  -17.8631    1.0000 </r>
       <r>  -17.1123    1.0000 </r>
       <r>  -17.1099    1.0000 </r>
       <r>  -16.8841    1.0000 </r>
       <r>  -16.5946    1.0000 </r>
       <r>  -16.5945    1.0000 </r>
       <r>  -16.5501    1.0000 </r>
       <r>  -16.3224    1.0000 </r>
       <r>  -16.3221    1.0000 </r>
       <r>  -15.6166    1.0000 </r>
       <r>  -15.6165    1.0000 </r>
       <r>  -15.5703    1.0000 </r>
       <r>  -14.4697    1.0000 </r>
       <r>  -14.4694    1.0000 </r>
       <r>  -14.4511    1.0000 </r>
       <r>  -14.1678    1.0000 </r>
       <r>  -14.1675    1.0000 </r>
       <r>  -13.8724    1.0000 </r>
       <r>  -13.8706    1.0000 </r>
       <r>  -13.7611    1.0000 </r>
       <r>  -13.3486    1.0000 </r>
       <r>  -13.3478    1.0000 </r>
       <r>  -13.1154    1.0000 </r>
       <r>  -12.8873    1.0000 </r>
       <r>  -12.1062    1.0000 </r>
       <r>  -11.9884    1.0000 </r>
       <r>  -11.9877    1.0000 </r>
       <r>  -11.8487    1.0000 </r>
       <r>  -11.6363    1.0000 </r>
       <r>  -11.6360    1.0000 </r>
       <r>  -11.6322    1.0000 </r>
       <r>  -11.2819    1.0000 </r>
       <r>  -11.2720    1.0000 </r>
       <r>  -11.2481    1.0000 </r>
       <r>  -11.0148    1.0000 </r>
       <r>  -10.7366    1.0000 </r>
       <r>  -10.6970    1.0000 </r>
       <r>  -10.6969    1.0000 </r>
       <r>  -10.5436    1.0000 </r>
       <r>  -10.5434    1.0000 </r>
       <r>  -10.3879    1.0000 </r>
       <r>  -10.2564    1.0000 </r>
       <r>  -10.2563    1.0000 </r>
       <r>  -10.2275    1.0000 </r>
       <r>  -10.1719    1.0000 </r>
       <r>  -10.1716    1.0000 </r>
       <r>   -9.9939    1.0000 </r>
       <r>   -9.9936    1.0000 </r>
       <r>   -9.8339    1.0000 </r>
       <r>   -9.7793    1.0000 </r>
       <r>   -9.7792    1.0000 </r>
       <r>   -9.7637    1.0000 </r>
       <r>   -9.6552    1.0000 </r>
       <r>   -9.6550    1.0000 </r>
       <r>   -9.4801    1.0000 </r>
       <r>   -9.3163    1.0000 </r>
       <r>   -9.3159    1.0000 </r>
       <r>   -9.0815    1.0000 </r>
       <r>   -9.0569    1.0000 </r>
       <r>   -8.9560    1.0000 </r>
       <r>   -8.8962    1.0000 </r>
       <r>   -8.8960    1.0000 </r>
       <r>   -8.8927    1.0000 </r>
       <r>   -8.8209    1.0000 </r>
       <r>   -8.8206    1.0000 </r>
       <r>   -8.4752    1.0000 </r>
       <r>   -8.3766    1.0000 </r>
       <r>   -8.3763    1.0000 </r>
       <r>   -8.2338    1.0000 </r>
       <r>   -8.1925    1.0000 </r>
       <r>   -7.9991    1.0000 </r>
       <r>   -7.9988    1.0000 </r>
       <r>   -7.8350    1.0000 </r>
       <r>   -7.8349    1.0000 </r>
       <r>   -7.7732    1.0000 </r>
       <r>   -7.7729    1.0000 </r>
       <r>   -7.6718    1.0000 </r>
       <r>   -7.6337    1.0000 </r>
       <r>   -7.6080    1.0000 </r>
       <r>   -7.6078    1.0000 </r>
       <r>   -6.8613    1.0000 </r>
       <r>   -6.8611    1.0000 </r>
       <r>   -6.8076    1.0000 </r>
       <r>   -6.8074    1.0000 </r>
       <r>   -5.8949    1.0000 </r>
       <r>   -5.8744    1.0000 </r>
       <r>   -5.8740    1.0000 </r>
       <r>   -5.7159    1.0000 </r>
       <r>   -5.6796    1.0000 </r>
       <r>   -5.6793    1.0000 </r>
       <r>   -4.6663    1.0000 </r>
       <r>   -4.5812    1.0000 </r>
       <r>   -3.8335    1.0000 </r>
       <r>   -3.8334    1.0000 </r>
       <r>   -3.7585    1.0000 </r>
       <r>   -3.7584    1.0000 </r>
       <r>   -1.0189    0.0000 </r>
       <r>   -0.9978    0.0000 </r>
       <r>   -0.9975    0.0000 </r>
       <r>   -0.8911    0.0000 </r>
       <r>   -0.8908    0.0000 </r>
       <r>   -0.8564    0.0000 </r>
       <r>   -0.3243    0.0000 </r>
       <r>   -0.0654    0.0000 </r>
       <r>   -0.0632    0.0000 </r>
       <r>   -0.0274    0.0000 </r>
       <r>    0.0276    0.0000 </r>
       <r>    0.0278    0.0000 </r>
       <r>    0.1598    0.0000 </r>
       <r>    0.3052    0.0000 </r>
       <r>    0.3054    0.0000 </r>
       <r>    0.3275    0.0000 </r>
       <r>    0.3280    0.0000 </r>
       <r>    0.4037    0.0000 </r>
       <r>    0.4044    0.0000 </r>
       <r>    0.4581    0.0000 </r>
       <r>    0.4623    0.0000 </r>
       <r>    0.4629    0.0000 </r>
       <r>    0.5057    0.0000 </r>
       <r>    0.6571    0.0000 </r>
       <r>    0.6784    0.0000 </r>
       <r>    0.7803    0.0000 </r>
       <r>    0.7810    0.0000 </r>
       <r>    0.8788    0.0000 </r>
       <r>    0.8807    0.0000 </r>
       <r>    0.8960    0.0000 </r>
       <r>    0.9019    0.0000 </r>
       <r>    0.9280    0.0000 </r>
       <r>    0.9441    0.0000 </r>
       <r>    0.9662    0.0000 </r>
       <r>    0.9677    0.0000 </r>
       <r>    1.0140    0.0000 </r>
       <r>    1.0440    0.0000 </r>
       <r>    1.1529    0.0000 </r>
       <r>    1.2016    0.0000 </r>
       <r>    1.2171    0.0000 </r>
       <r>    1.2291    0.0000 </r>
       <r>    1.3021    0.0000 </r>
       <r>    1.3351    0.0000 </r>
       <r>    1.3388    0.0000 </r>
       <r>    1.3922    0.0000 </r>
       <r>    1.3953    0.0000 </r>
      </set>
      <set comment="kpoint 3">
       <r>  -22.9126    1.0000 </r>
       <r>  -22.8490    1.0000 </r>
       <r>  -22.6997    1.0000 </r>
       <r>  -22.6994    1.0000 </r>
       <r>  -22.6245    1.0000 </r>
       <r>  -22.6243    1.0000 </r>
       <r>  -21.1024    1.0000 </r>
       <r>  -21.0192    1.0000 </r>
       <r>  -21.0184    1.0000 </r>
       <r>  -19.9519    1.0000 </r>
       <r>  -19.5726    1.0000 </r>
       <r>  -19.2067    1.0000 </r>
       <r>  -19.2015    1.0000 </r>
       <r>  -18.7625    1.0000 </r>
       <r>  -18.6048    1.0000 </r>
       <r>  -18.6045    1.0000 </r>
       <r>  -18.3624    1.0000 </r>
       <r>  -17.8646    1.0000 </r>
       <r>  -17.8587    1.0000 </r>
       <r>  -17.1189    1.0000 </r>
       <r>  -17.1099    1.0000 </r>
       <r>  -16.8791    1.0000 </r>
       <r>  -16.5946    1.0000 </r>
       <r>  -16.5945    1.0000 </r>
       <r>  -16.5496    1.0000 </r>
       <r>  -16.3232    1.0000 </r>
       <r>  -16.3221    1.0000 </r>
       <r>  -15.6166    1.0000 </r>
       <r>  -15.6163    1.0000 </r>
       <r>  -15.5706    1.0000 </r>
       <r>  -14.4697    1.0000 </r>
       <r>  -14.4693    1.0000 </r>
       <r>  -14.4511    1.0000 </r>
       <r>  -14.1679    1.0000 </r>
       <r>  -14.1668    1.0000 </r>
       <r>  -13.8774    1.0000 </r>
       <r>  -13.8705    1.0000 </r>
       <r>  -13.7558    1.0000 </r>
       <r>  -13.3504    1.0000 </r>
       <r>  -13.3479    1.0000 </r>
       <r>  -13.1145    1.0000 </r>
       <r>  -12.8874    1.0000 </r>
       <r>  -12.1061    1.0000 </r>
       <r>  -11.9902    1.0000 </r>
       <r>  -11.9878    1.0000 </r>
       <r>  -11.8458    1.0000 </r>
       <r>  -11.6363    1.0000 </r>
       <r>  -11.6359    1.0000 </r>
       <r>  -11.6321    1.0000 </r>
       <r>  -11.2967    1.0000 </r>
       <r>  -11.2718    1.0000 </r>
       <r>  -11.2341    1.0000 </r>
       <r>  -11.0150    1.0000 </r>
       <r>  -10.7370    1.0000 </r>
       <r>  -10.6978    1.0000 </r>
       <r>  -10.6972    1.0000 </r>
       <r>  -10.5430    1.0000 </r>
       <r>  -10.5421    1.0000 </r>
       <r>  -10.3882    1.0000 </r>
       <r>  -10.2564    1.0000 </r>
       <r>  -10.2563    1.0000 </r>
       <r>  -10.2270    1.0000 </r>
       <r>  -10.1725    1.0000 </r>
       <r>  -10.1716    1.0000 </r>
       <r>   -9.9950    1.0000 </r>
       <r>   -9.9939    1.0000 </r>
       <r>   -9.8337    1.0000 </r>
       <r>   -9.7794    1.0000 </r>
       <r>   -9.7792    1.0000 </r>
       <r>   -9.7626    1.0000 </r>
       <r>   -9.6555    1.0000 </r>
       <r>   -9.6550    1.0000 </r>
       <r>   -9.4795    1.0000 </r>
       <r>   -9.3171    1.0000 </r>
       <r>   -9.3159    1.0000 </r>
       <r>   -9.0810    1.0000 </r>
       <r>   -9.0564    1.0000 </r>
       <r>   -8.9561    1.0000 </r>
       <r>   -8.8969    1.0000 </r>
       <r>   -8.8960    1.0000 </r>
       <r>   -8.8927    1.0000 </r>
       <r>   -8.8212    1.0000 </r>
       <r>   -8.8206    1.0000 </r>
       <r>   -8.4738    1.0000 </r>
       <r>   -8.3767    1.0000 </r>
       <r>   -8.3760    1.0000 </r>
       <r>   -8.2348    1.0000 </r>
       <r>   -8.1939    1.0000 </r>
       <r>   -7.9988    1.0000 </r>
       <r>   -7.9977    1.0000 </r>
       <r>   -7.8356    1.0000 </r>
       <r>   -7.8350    1.0000 </r>
       <r>   -7.7732    1.0000 </r>
       <r>   -7.7725    1.0000 </r>
       <r>   -7.6716    1.0000 </r>
       <r>   -7.6340    1.0000 </r>
       <r>   -7.6079    1.0000 </r>
       <r>   -7.6077    1.0000 </r>
       <r>   -6.8613    1.0000 </r>
       <r>   -6.8611    1.0000 </r>
       <r>   -6.8076    1.0000 </r>
       <r>   -6.8074    1.0000 </r>
       <r>   -5.8948    1.0000 </r>
       <r>   -5.8745    1.0000 </r>
       <r>   -5.8740    1.0000 </r>
       <r>   -5.7158    1.0000 </r>
       <r>   -5.6798    1.0000 </r>
       <r>   -5.6793    1.0000 </r>
       <r>   -4.6662    1.0000 </r>
       <r>   -4.5812    1.0000 </r>
       <r>   -3.8335    1.0000 </r>
       <r>   -3.8334    1.0000 </r>
       <r>   -3.7585    1.0000 </r>
       <r>   -3.7584    1.0000 </r>
       <r>   -1.0188    0.0000 </r>
       <r>   -0.9979    0.0000 </r>
       <r>   -0.9975    0.0000 </r>
       <r>   -0.8911    0.0000 </r>
       <r>   -0.8908    0.0000 </r>
       <r>   -0.8566    0.0000 </r>
       <r>   -0.3238    0.0000 </r>
       <r>   -0.0718    0.0000 </r>
       <r>   -0.0645    0.0000 </r>
       <r>   -0.0231    0.0000 </r>
       <r>    0.0297    0.0000 </r>
       <r>    0.0300    0.0000 </r>
       <r>    0.1607    0.0000 </r>
       <r>    0.3041    0.0000 </r>
       <r>    0.3051    0.0000 </r>
       <r>    0.3263    0.0000 </r>
       <r>    0.3281    0.0000 </r>
       <r>    0.4015    0.0000 </r>
       <r>    0.4042    0.0000 </r>
       <r>    0.4574    0.0000 </r>
       <r>    0.4622    0.0000 </r>
       <r>    0.4653    0.0000 </r>
       <r>    0.5077    0.0000 </r>
       <r>    0.6577    0.0000 </r>
       <r>    0.6787    0.0000 </r>
       <r>    0.7783    0.0000 </r>
       <r>    0.7806    0.0000 </r>
       <r>    0.8710    0.0000 </r>
       <r>    0.8776    0.0000 </r>
       <r>    0.8897    0.0000 </r>
       <r>    0.9023    0.0000 </r>
       <r>    0.9385    0.0000 </r>
       <r>    0.9441    0.0000 </r>
       <r>    0.9658    0.0000 </r>
       <r>    0.9706    0.0000 </r>
       <r>    1.0237    0.0000 </r>
       <r>    1.0464    0.0000 </r>
       <r>    1.1530    0.0000 </r>
       <r>    1.1896    0.0000 </r>
       <r>    1.2158    0.0000 </r>
       <r>    1.2422    0.0000 </r>
       <r>    1.2934    0.0000 </r>
       <r>    1.3242    0.0000 </r>
       <r>    1.3367    0.0000 </r>
       <r>    1.3924    0.0000 </r>
       <r>    1.4022    0.0000 </r>
      </set>
      <set comment="kpoint 4">
       <r>  -22.9126    1.0000 </r>
       <r>  -22.8491    1.0000 </r>
       <r>  -22.6997    1.0000 </r>
       <r>  -22.6993    1.0000 </r>
       <r>  -22.6246    1.0000 </r>
       <r>  -22.6243    1.0000 </r>
       <r>  -21.1018    1.0000 </r>
       <r>  -21.0199    1.0000 </r>
       <r>  -21.0184    1.0000 </r>
       <r>  -19.9499    1.0000 </r>
       <r>  -19.5783    1.0000 </r>
       <r>  -19.2067    1.0000 </r>
       <r>  -19.1951    1.0000 </r>
       <r>  -18.7639    1.0000 </r>
       <r>  -18.6048    1.0000 </r>
       <r>  -18.6043    1.0000 </r>
       <r>  -18.3677    1.0000 </r>
       <r>  -17.8646    1.0000 </r>
       <r>  -17.8516    1.0000 </r>
       <r>  -17.1293    1.0000 </r>
       <r>  -17.1099    1.0000 </r>
       <r>  -16.8714    1.0000 </r>
       <r>  -16.5946    1.0000 </r>
       <r>  -16.5945    1.0000 </r>
       <r>  -16.5488    1.0000 </r>
       <r>  -16.3246    1.0000 </r>
       <r>  -16.3221    1.0000 </r>
       <r>  -15.6166    1.0000 </r>
       <r>  -15.6161    1.0000 </r>
       <r>  -15.5710    1.0000 </r>
       <r>  -14.4695    1.0000 </r>
       <r>  -14.4690    1.0000 </r>
       <r>  -14.4511    1.0000 </r>
       <r>  -14.1682    1.0000 </r>
       <r>  -14.1657    1.0000 </r>
       <r>  -13.8847    1.0000 </r>
       <r>  -13.8702    1.0000 </r>
       <r>  -13.7478    1.0000 </r>
       <r>  -13.3535    1.0000 </r>
       <r>  -13.3480    1.0000 </r>
       <r>  -13.1130    1.0000 </r>
       <r>  -12.8876    1.0000 </r>
       <r>  -12.1060    1.0000 </r>
       <r>  -11.9931    1.0000 </r>
       <r>  -11.9879    1.0000 </r>
       <r>  -11.8411    1.0000 </r>
       <r>  -11.6365    1.0000 </r>
       <r>  -11.6359    1.0000 </r>
       <r>  -11.6319    1.0000 </r>
       <r>  -11.3123    1.0000 </r>
       <r>  -11.2714    1.0000 </r>
       <r>  -11.2199    1.0000 </r>
       <r>  -11.0153    1.0000 </r>
       <r>  -10.7378    1.0000 </r>
       <r>  -10.6991    1.0000 </r>
       <r>  -10.6976    1.0000 </r>
       <r>  -10.5419    1.0000 </r>
       <r>  -10.5401    1.0000 </r>
       <r>  -10.3888    1.0000 </r>
       <r>  -10.2564    1.0000 </r>
       <r>  -10.2563    1.0000 </r>
       <r>  -10.2263    1.0000 </r>
       <r>  -10.1735    1.0000 </r>
       <r>  -10.1716    1.0000 </r>
       <r>   -9.9967    1.0000 </r>
       <r>   -9.9943    1.0000 </r>
       <r>   -9.8333    1.0000 </r>
       <r>   -9.7797    1.0000 </r>
       <r>   -9.7792    1.0000 </r>
       <r>   -9.7608    1.0000 </r>
       <r>   -9.6559    1.0000 </r>
       <r>   -9.6550    1.0000 </r>
       <r>   -9.4785    1.0000 </r>
       <r>   -9.3186    1.0000 </r>
       <r>   -9.3159    1.0000 </r>
       <r>   -9.0802    1.0000 </r>
       <r>   -9.0556    1.0000 </r>
       <r>   -8.9563    1.0000 </r>
       <r>   -8.8980    1.0000 </r>
       <r>   -8.8960    1.0000 </r>
       <r>   -8.8927    1.0000 </r>
       <r>   -8.8216    1.0000 </r>
       <r>   -8.8206    1.0000 </r>
       <r>   -8.4715    1.0000 </r>
       <r>   -8.3769    1.0000 </r>
       <r>   -8.3754    1.0000 </r>
       <r>   -8.2364    1.0000 </r>
       <r>   -8.1962    1.0000 </r>
       <r>   -7.9983    1.0000 </r>
       <r>   -7.9957    1.0000 </r>
       <r>   -7.8365    1.0000 </r>
       <r>   -7.8352    1.0000 </r>
       <r>   -7.7733    1.0000 </r>
       <r>   -7.7716    1.0000 </r>
       <r>   -7.6714    1.0000 </r>
       <r>   -7.6346    1.0000 </r>
       <r>   -7.6078    1.0000 </r>
       <r>   -7.6076    1.0000 </r>
       <r>   -6.8613    1.0000 </r>
       <r>   -6.8611    1.0000 </r>
       <r>   -6.8076    1.0000 </r>
       <r>   -6.8074    1.0000 </r>
       <r>   -5.8947    1.0000 </r>
       <r>   -5.8746    1.0000 </r>
       <r>   -5.8740    1.0000 </r>
       <r>   -5.7155    1.0000 </r>
       <r>   -5.6800    1.0000 </r>
       <r>   -5.6793    1.0000 </r>
       <r>   -4.6662    1.0000 </r>
       <r>   -4.5812    1.0000 </r>
       <r>   -3.8335    1.0000 </r>
       <r>   -3.8334    1.0000 </r>
       <r>   -3.7585    1.0000 </r>
       <r>   -3.7584    1.0000 </r>
       <r>   -1.0186    0.0000 </r>
       <r>   -0.9980    0.0000 </r>
       <r>   -0.9975    0.0000 </r>
       <r>   -0.8910    0.0000 </r>
       <r>   -0.8906    0.0000 </r>
       <r>   -0.8569    0.0000 </r>
       <r>   -0.3229    0.0000 </r>
       <r>   -0.0802    0.0000 </r>
       <r>   -0.0665    0.0000 </r>
       <r>   -0.0184    0.0000 </r>
       <r>    0.0334    0.0000 </r>
       <r>    0.0336    0.0000 </r>
       <r>    0.1621    0.0000 </r>
       <r>    0.3021    0.0000 </r>
       <r>    0.3046    0.0000 </r>
       <r>    0.3245    0.0000 </r>
       <r>    0.3282    0.0000 </r>
       <r>    0.3984    0.0000 </r>
       <r>    0.4039    0.0000 </r>
       <r>    0.4548    0.0000 </r>
       <r>    0.4623    0.0000 </r>
       <r>    0.4695    0.0000 </r>
       <r>    0.5112    0.0000 </r>
       <r>    0.6585    0.0000 </r>
       <r>    0.6791    0.0000 </r>
       <r>    0.7745    0.0000 </r>
       <r>    0.7800    0.0000 </r>
       <r>    0.8607    0.0000 </r>
       <r>    0.8727    0.0000 </r>
       <r>    0.8862    0.0000 </r>
       <r>    0.9025    0.0000 </r>
       <r>    0.9386    0.0000 </r>
       <r>    0.9514    0.0000 </r>
       <r>    0.9686    0.0000 </r>
       <r>    0.9759    0.0000 </r>
       <r>    1.0371    0.0000 </r>
       <r>    1.0505    0.0000 </r>
       <r>    1.1505    0.0000 </r>
       <r>    1.1815    0.0000 </r>
       <r>    1.2136    0.0000 </r>
       <r>    1.2541    0.0000 </r>
       <r>    1.2826    0.0000 </r>
       <r>    1.3101    0.0000 </r>
       <r>    1.3336    0.0000 </r>
       <r>    1.3933    0.0000 </r>
       <r>    1.4097    0.0000 </r>
      </set>
      <set comment="kpoint 5">
       <r>  -22.9125    1.0000 </r>
       <r>  -22.8491    1.0000 </r>
       <r>  -22.6997    1.0000 </r>
       <r>  -22.6991    1.0000 </r>
       <r>  -22.6247    1.0000 </r>
       <r>  -22.6243    1.0000 </r>
       <r>  -21.1011    1.0000 </r>
       <r>  -21.0209    1.0000 </r>
       <r>  -21.0184    1.0000 </r>
       <r>  -19.9471    1.0000 </r>
       <r>  -19.5859    1.0000 </r>
       <r>  -19.2067    1.0000 </r>
       <r>  -19.1864    1.0000 </r>
       <r>  -18.7659    1.0000 </r>
       <r>  -18.6047    1.0000 </r>
       <r>  -18.6038    1.0000 </r>
       <r>  -18.3748    1.0000 </r>
       <r>  -17.8646    1.0000 </r>
       <r>  -17.8420    1.0000 </r>
       <r>  -17.1428    1.0000 </r>
       <r>  -17.1099    1.0000 </r>
       <r>  -16.8617    1.0000 </r>
       <r>  -16.5946    1.0000 </r>
       <r>  -16.5944    1.0000 </r>
       <r>  -16.5476    1.0000 </r>
       <r>  -16.3265    1.0000 </r>
       <r>  -16.3221    1.0000 </r>
       <r>  -15.6166    1.0000 </r>
       <r>  -15.6158    1.0000 </r>
       <r>  -15.5715    1.0000 </r>
       <r>  -14.4694    1.0000 </r>
       <r>  -14.4687    1.0000 </r>
       <r>  -14.4512    1.0000 </r>
       <r>  -14.1686    1.0000 </r>
       <r>  -14.1642    1.0000 </r>
       <r>  -13.8937    1.0000 </r>
       <r>  -13.8699    1.0000 </r>
       <r>  -13.7381    1.0000 </r>
       <r>  -13.3577    1.0000 </r>
       <r>  -13.3480    1.0000 </r>
[...]
       <r>   -22.3445     0.0000    12.0000 </r>
       <r>   -22.2552     0.0000    12.0000 </r>
       <r>   -22.1659     0.0000    12.0000 </r>
       <r>   -22.0767     0.0000    12.0000 </r>
       <r>   -21.9874     0.0000    12.0000 </r>
       <r>   -21.8981     0.0000    12.0000 </r>
       <r>   -21.8088     0.0000    12.0000 </r>
       <r>   -21.7195     0.0000    12.0000 </r>
       <r>   -21.6303     0.0000    12.0000 </r>
       <r>   -21.5410     0.0000    12.0000 </r>
       <r>   -21.4517     0.0000    12.0000 </r>
       <r>   -21.3624     0.0000    12.0000 </r>
       <r>   -21.2731     0.0000    12.0000 </r>
       <r>   -21.1839     0.0000    12.0000 </r>
       <r>   -21.0946     5.9757    12.5335 </r>
       <r>   -21.0053    56.5888    17.9284 </r>
       <r>   -20.9160     0.0000    18.0000 </r>
       <r>   -20.8267     0.0000    18.0000 </r>
       <r>   -20.7375     0.0000    18.0000 </r>
       <r>   -20.6482     0.0000    18.0000 </r>
       <r>   -20.5589     0.0000    18.0000 </r>
       <r>   -20.4696     0.0000    18.0000 </r>
       <r>   -20.3803     0.0000    18.0000 </r>
       <r>   -20.2911     0.0000    18.0000 </r>
       <r>   -20.2018     0.0000    18.0000 </r>
       <r>   -20.1125     0.0000    18.0000 </r>
       <r>   -20.0232     0.0000    18.0000 </r>
       <r>   -19.9339     5.1999    18.4642 </r>
       <r>   -19.8447    10.9709    19.5490 </r>
       <r>   -19.7554     9.1708    20.5214 </r>
       <r>   -19.6661     6.9710    21.2979 </r>
       <r>   -19.5768     5.3217    21.8110 </r>
       <r>   -19.4875     0.0000    22.0000 </r>
       <r>   -19.3983     0.0000    22.0000 </r>
       <r>   -19.3090     0.0000    22.0000 </r>
       <r>   -19.2197     0.7829    22.0699 </r>
       <r>   -19.1304    27.8390    24.5554 </r>
       <r>   -19.0411     3.5616    24.9191 </r>
       <r>   -18.9519    11.4115    25.9863 </r>
       <r>   -18.8626     3.9639    26.3539 </r>
       <r>   -18.7733    12.1530    27.5926 </r>
       <r>   -18.6840     2.4561    28.0000 </r>
       <r>   -18.5947    30.5095    30.7239 </r>
       <r>   -18.5055     8.8677    32.4826 </r>
       <r>   -18.4162     6.2294    33.4616 </r>
       <r>   -18.3269     5.5744    34.0000 </r>
       <r>   -18.2376     0.0000    34.0000 </r>
       <r>   -18.1483     0.0000    34.0000 </r>
       <r>   -18.0591     0.0000    34.0000 </r>
       <r>   -17.9698     0.0000    34.0000 </r>
       <r>   -17.8805     0.2851    34.0255 </r>
       <r>   -17.7912    27.7567    36.5036 </r>
       <r>   -17.7019     2.5983    36.7987 </r>
       <r>   -17.6127     4.6723    37.2519 </r>
       <r>   -17.5234     6.5644    37.9885 </r>
       <r>   -17.4341     4.4997    38.4017 </r>
       <r>   -17.3448     6.8529    39.0801 </r>
       <r>   -17.2555     2.4234    39.3497 </r>
       <r>   -17.1662     2.9345    39.6294 </r>
       <r>   -17.0770    26.1256    42.0000 </r>
       <r>   -16.9877     0.0000    42.0000 </r>
       <r>   -16.8984     0.0449    42.0040 </r>
       <r>   -16.8091     6.2917    42.5657 </r>
       <r>   -16.7198    15.2294    43.9936 </r>
       <r>   -16.6306     0.0000    44.0000 </r>
       <r>   -16.5413    49.7493    48.4416 </r>
       <r>   -16.4520    14.8731    50.0000 </r>
       <r>   -16.3627    12.8109    51.1438 </r>
       <r>   -16.2734    30.5674    54.0000 </r>
       <r>   -16.1842     0.0000    54.0000 </r>
       <r>   -16.0949     0.0000    54.0000 </r>
       <r>   -16.0056     0.0000    54.0000 </r>
       <r>   -15.9163     0.0000    54.0000 </r>
       <r>   -15.8270     0.0000    54.0000 </r>
       <r>   -15.7378     0.0000    54.0000 </r>
       <r>   -15.6485     0.0001    54.0000 </r>
       <r>   -15.5592    66.9473    59.9771 </r>
       <r>   -15.4699     0.0000    60.0000 </r>
       <r>   -15.3806     0.0000    60.0000 </r>
       <r>   -15.2914     0.0000    60.0000 </r>
       <r>   -15.2021     0.0000    60.0000 </r>
       <r>   -15.1128     0.0000    60.0000 </r>
       <r>   -15.0235     0.0000    60.0000 </r>
       <r>   -14.9342     0.0000    60.0000 </r>
       <r>   -14.8450     0.0000    60.0000 </r>
       <r>   -14.7557     0.0000    60.0000 </r>
       <r>   -14.6664     0.0000    60.0000 </r>
       <r>   -14.5771     0.0000    60.0000 </r>
       <r>   -14.4878     0.0703    60.0063 </r>
       <r>   -14.3986    67.1339    66.0000 </r>
       <r>   -14.3093     0.0000    66.0000 </r>
       <r>   -14.2200     0.0000    66.0000 </r>
       <r>   -14.1307    32.2293    68.8774 </r>
       <r>   -14.0414    14.9030    70.3397 </r>
       <r>   -13.9522    10.1318    71.3789 </r>
       <r>   -13.8629    19.3484    73.1618 </r>
       <r>   -13.7736     0.0777    74.0069 </r>
       <r>   -13.6843     6.1940    74.5599 </r>
       <r>   -13.5950     4.9032    75.0405 </r>
       <r>   -13.5058    10.3094    76.0338 </r>
       <r>   -13.4165    11.9441    77.2381 </r>
       <r>   -13.3272    30.1981    79.9979 </r>
       <r>   -13.2379     0.0000    80.0000 </r>
       <r>   -13.1486     0.0000    80.0000 </r>
       <r>   -13.0594    22.1856    81.9807 </r>
       <r>   -12.9701     0.0000    82.0000 </r>
       <r>   -12.8808    20.9775    83.8729 </r>
       <r>   -12.7915     0.0000    84.0000 </r>
       <r>   -12.7022     0.0000    84.0000 </r>
       <r>   -12.6130     0.0000    84.0000 </r>
       <r>   -12.5237     0.0000    84.0000 </r>
       <r>   -12.4344     0.0000    84.0000 </r>
       <r>   -12.3451     0.0000    84.0000 </r>
       <r>   -12.2558     0.0000    84.0000 </r>
       <r>   -12.1666     0.0000    84.0000 </r>
       <r>   -12.0773    22.3711    85.9973 </r>
       <r>   -11.9880    34.7654    89.1041 </r>
       <r>   -11.8987     0.0000    90.0000 </r>
       <r>   -11.8094     5.2540    90.4691 </r>
       <r>   -11.7202     5.7992    91.0229 </r>
       <r>   -11.6309    51.8857    95.7160 </r>
       <r>   -11.5416    15.1960    98.3091 </r>
       <r>   -11.4523     8.8028    99.2248 </r>
       <r>   -11.3630     3.5170    99.5815 </r>
       <r>   -11.2738     6.2770   100.1939 </r>
       <r>   -11.1845    18.0932   102.3828 </r>
       <r>   -11.0952     5.5332   102.9279 </r>
       <r>   -11.0059    32.9807   105.9509 </r>
       <r>   -10.9166     0.0000   106.0000 </r>
       <r>   -10.8274     0.0000   106.0000 </r>
       <r>   -10.7381    25.2460   108.2540 </r>
       <r>   -10.6488    32.7665   112.0000 </r>
       <r>   -10.5595     0.0584   112.0052 </r>
       <r>   -10.4702    35.6379   115.1870 </r>
       <r>   -10.3810    24.2120   117.9413 </r>
       <r>   -10.2917     0.0000   118.0000 </r>
       <r>   -10.2024    67.2734   124.0062 </r>
       <r>   -10.1131    44.6890   128.0000 </r>
       <r>   -10.0238    15.0028   129.3394 </r>
       <r>    -9.9346    28.6464   132.0000 </r>
       <r>    -9.8453     0.2599   132.0232 </r>
       <r>    -9.7560    70.3770   138.3065 </r>
       <r>    -9.6667    31.4773   141.3144 </r>
       <r>    -9.5774    25.1218   144.0000 </r>
       <r>    -9.4882     0.4085   144.0365 </r>
       <r>    -9.3989    21.7560   146.1543 </r>
       <r>    -9.3096    36.3465   149.5882 </r>
       <r>    -9.2203     0.0000   150.0000 </r>
       <r>    -9.1310     0.0000   150.0000 </r>
       <r>    -9.0418    28.8419   152.5750 </r>
       <r>    -8.9525    36.0168   155.9535 </r>
       <r>    -8.8632    60.6122   162.0000 </r>
       <r>    -8.7739    44.8025   166.0000 </r>
       <r>    -8.6846     0.0000   166.0000 </r>
       <r>    -8.5954     0.0000   166.0000 </r>
       <r>    -8.5061     0.0000   166.0000 </r>
       <r>    -8.4168     9.0245   166.8057 </r>
       <r>    -8.3275    56.5376   171.9185 </r>
       <r>    -8.2382    33.0072   175.0531 </r>
       <r>    -8.1490     7.0523   176.0000 </r>
       <r>    -8.0597     0.0000   176.0000 </r>
       <r>    -7.9704    26.7295   178.3864 </r>
       <r>    -7.8811    20.9314   180.5741 </r>
       <r>    -7.7918    33.4444   184.0242 </r>
       <r>    -7.7026    46.4391   188.1703 </r>
       <r>    -7.6133    49.6085   192.9173 </r>
       <r>    -7.5240     2.7108   196.0000 </r>
       <r>    -7.4347     0.0000   196.0000 </r>
       <r>    -7.3454     0.0000   196.0000 </r>
       <r>    -7.2562     0.0000   196.0000 </r>
       <r>    -7.1669     0.0000   196.0000 </r>
       <r>    -7.0776     0.0000   196.0000 </r>
       <r>    -6.9883     0.0000   196.0000 </r>
       <r>    -6.8990     0.0000   196.0000 </r>
       <r>    -6.8098    61.7755   201.5153 </r>
       <r>    -6.7205     0.0000   204.0000 </r>
       <r>    -6.6312     0.0000   204.0000 </r>
       <r>    -6.5419     0.0000   204.0000 </r>
       <r>    -6.4526     0.0000   204.0000 </r>
       <r>    -6.3634     0.0000   204.0000 </r>
       <r>    -6.2741     0.0000   204.0000 </r>
       <r>    -6.1848     0.0000   204.0000 </r>
       <r>    -6.0955     0.0000   204.0000 </r>
       <r>    -6.0062     0.0000   204.0000 </r>
       <r>    -5.9170     0.0060   204.0005 </r>
       <r>    -5.8277    67.1982   210.0000 </r>
       <r>    -5.7384     0.0032   210.0003 </r>
       <r>    -5.6491    67.2008   216.0000 </r>
       <r>    -5.5598     0.0000   216.0000 </r>
       <r>    -5.4706     0.0000   216.0000 </r>
       <r>    -5.3813     0.0000   216.0000 </r>
       <r>    -5.2920     0.0000   216.0000 </r>
       <r>    -5.2027     0.0000   216.0000 </r>
       <r>    -5.1134     0.0000   216.0000 </r>
       <r>    -5.0242     0.0000   216.0000 </r>
       <r>    -4.9349     0.0000   216.0000 </r>
       <r>    -4.8456     0.0000   216.0000 </r>
       <r>    -4.7563     0.0000   216.0000 </r>
       <r>    -4.6670     9.0092   216.8043 </r>
       <r>    -4.5778    16.4676   219.4702 </r>
       <r>    -4.4885     0.0000   220.0000 </r>
       <r>    -4.3992     0.0000   220.0000 </r>
       <r>    -4.3099     0.0000   220.0000 </r>
       <r>    -4.2206     0.0000   220.0000 </r>
       <r>    -4.1314     0.0000   220.0000 </r>
       <r>    -4.0421     0.0000   220.0000 </r>
       <r>    -3.9528     0.0000   220.0000 </r>
       <r>    -3.8635     0.0004   220.0000 </r>
       <r>    -3.7742    45.4303   224.0561 </r>
       <r>    -3.6850    44.1749   228.0000 </r>
       <r>    -3.5957     0.0000   228.0000 </r>
       <r>    -3.5064     0.0000   228.0000 </r>
       <r>    -3.4171     0.0000   228.0000 </r>
       <r>    -3.3278     0.0000   228.0000 </r>
       <r>    -3.2386     0.0000   228.0000 </r>
       <r>    -3.1493     0.0000   228.0000 </r>
       <r>    -3.0600     0.0000   228.0000 </r>
       <r>    -2.9707     0.0000   228.0000 </r>
       <r>    -2.8814     0.0000   228.0000 </r>
       <r>    -2.7922     0.0000   228.0000 </r>
       <r>    -2.7029     0.0000   228.0000 </r>
       <r>    -2.6136     0.0000   228.0000 </r>
       <r>    -2.5243     0.0000   228.0000 </r>
       <r>    -2.4350     0.0000   228.0000 </r>
       <r>    -2.3458     0.0000   228.0000 </r>
       <r>    -2.2565     0.0000   228.0000 </r>
       <r>    -2.1672     0.0000   228.0000 </r>
       <r>    -2.0779     0.0000   228.0000 </r>
       <r>    -1.9886     0.0000   228.0000 </r>
       <r>    -1.8994     0.0000   228.0000 </r>
       <r>    -1.8101     0.0000   228.0000 </r>
       <r>    -1.7208     0.0000   228.0000 </r>
       <r>    -1.6315     0.0000   228.0000 </r>
       <r>    -1.5422     0.0000   228.0000 </r>
       <r>    -1.4530     0.0000   228.0000 </r>
       <r>    -1.3637     0.0000   228.0000 </r>
       <r>    -1.2744     0.0000   228.0000 </r>
       <r>    -1.1851     0.0000   228.0000 </r>
       <r>    -1.0958     0.0000   228.0000 </r>
       <r>    -1.0066    27.7871   230.4808 </r>
       <r>    -0.9173     0.0028   234.0002 </r>
       <r>    -0.8280    67.2014   240.0000 </r>
       <r>    -0.7387     0.0000   240.0000 </r>
       <r>    -0.6494     0.0000   240.0000 </r>
       <r>    -0.5602     0.0000   240.0000 </r>
       <r>    -0.4709     0.0000   240.0000 </r>
       <r>    -0.3816     0.0000   240.0000 </r>
       <r>    -0.2923    11.1026   240.9912 </r>
       <r>    -0.2030     9.1965   242.2114 </r>
       <r>    -0.1138    14.3155   244.1505 </r>
       <r>    -0.0245    18.9131   246.1354 </r>
       <r>     0.0648    31.3388   249.0711 </r>
       <r>     0.1541    24.2534   251.4055 </r>
       <r>     0.2434    32.5721   254.7549 </r>
       <r>     0.3326    64.7930   261.5932 </r>
       <r>     0.4219    53.7740   266.8009 </r>
       <r>     0.5112    37.5969   270.8279 </r>
       <r>     0.6005    27.2767   273.7115 </r>
       <r>     0.6898    40.2115   278.0945 </r>
       <r>     0.7790    30.8001   281.2756 </r>
       <r>     0.8683    47.6673   286.3018 </r>
       <r>     0.9576    55.8521   292.1298 </r>
       <r>     1.0469    55.5818   297.9238 </r>
       <r>     1.1362    47.2776   302.6073 </r>
       <r>     1.2254    49.6487   307.4545 </r>
       <r>     1.3147    49.4473   312.4071 </r>
       <r>     1.4040    63.4652   318.5918 </r>
       <r>     1.4933     7.6975   320.0000 </r>
       <r>     1.5826     0.0000   320.0000 </r>
       <r>     1.6718     0.0000   320.0000 </r>
       <r>     1.7611     0.0000   320.0000 </r>
       <r>     1.8504     0.0000   320.0000 </r>
       <r>     1.9397     0.0000   320.0000 </r>
       <r>     2.0290     0.0000   320.0000 </r>
       <r>     2.1182     0.0000   320.0000 </r>
       <r>     2.2075     0.0000   320.0000 </r>
       <r>     2.2968     0.0000   320.0000 </r>
       <r>     2.3861     0.0000   320.0000 </r>
       <r>     2.4754     0.0000   320.0000 </r>
       <r>     2.5646     0.0000   320.0000 </r>
       <r>     2.6539     0.0000   320.0000 </r>
      </set>
     </set>
    </array>
   </total>
  </dos>
 </calculation>
 <structure name="finalpos" >
  <crystal>
   <varray name="basis" >
    <v>      22.13943582       0.00000003       0.00000000 </v>
    <v>     -11.06971793      19.17331383       0.00000000 </v>
    <v>       0.00000000       0.00000000      20.00000000 </v>
   </varray>
   <i name="volume">   8489.72702410 </i>
   <varray name="rec_basis" >
    <v>       0.04516827       0.02607791       0.00000000 </v>
    <v>      -0.00000000       0.05215582       0.00000000 </v>
    <v>       0.00000000       0.00000000       0.05000000 </v>
   </varray>
  </crystal>
  <varray name="positions" >
   <v>       0.36954121       0.62961589       0.53121501 </v>
   <v>       0.29583325       0.59328223       0.53103977 </v>
   <v>       0.26007468       0.63045879       0.53121501 </v>
   <v>       0.29744898       0.70416675       0.53103977 </v>
   <v>       0.37038411       0.73992532       0.53121501 </v>
   <v>       0.40671777       0.70255102       0.53103977 </v>
   <v>       0.63524535       0.37496447       0.48141633 </v>
   <v>       0.70874797       0.40654286       0.48156671 </v>
   <v>       0.73971912       0.36475465       0.48141633 </v>
   <v>       0.69779490       0.29125203       0.48156671 </v>
   <v>       0.62503553       0.26028088       0.48141633 </v>
   <v>       0.59345714       0.30220510       0.48156671 </v>
   <v>       0.51713953       0.54190718       0.56284376 </v>
   <v>       0.52956476       0.48591095       0.55822175 </v>
   <v>       0.51845963       0.45158335       0.49607647 </v>
   <v>       0.55291151       0.46263605       0.61895069 </v>
   <v>       0.53187534       0.39161710       0.48753859 </v>
   <v>       0.45809282       0.97523235       0.56284376 </v>
   <v>       0.51408905       0.04365381       0.55822175 </v>
   <v>       0.54841665       0.06687628       0.49607647 </v>
   <v>       0.53736395       0.09027546       0.61895069 </v>
   <v>       0.60838290       0.14025824       0.48753859 </v>
   <v>       0.02476765       0.48286047       0.56284376 </v>
   <v>       0.95634619       0.47043524       0.55822175 </v>
   <v>       0.93312372       0.48154037       0.49607647 </v>
   <v>       0.90972454       0.44708849       0.61895069 </v>
   <v>       0.85974176       0.46812466       0.48753859 </v>
   <v>       0.49459834       0.56476229       0.50803658 </v>
   <v>       0.49637522       0.47467737       0.44110203 </v>
   <v>       0.48441911       0.53064503       0.44666709 </v>
   <v>       0.47704447       0.62195849       0.51569932 </v>
   <v>       0.43523771       0.92983605       0.50803658 </v>
   <v>       0.52532263       0.02169785       0.44110203 </v>
   <v>       0.46935497       0.95377408       0.44666709 </v>
   <v>       0.37804151       0.85508598       0.51569932 </v>
   <v>       0.07016395       0.50540166       0.50803658 </v>
   <v>       0.97830215       0.50362478       0.44110203 </v>
   <v>       0.04622592       0.51558089       0.44666709 </v>
   <v>       0.14491402       0.52295553       0.51569932 </v>
   <v>       0.26869902       0.73226640       0.53135933 </v>
   <v>       0.46356738       0.73130098       0.53135933 </v>
   <v>       0.26773360       0.53643262       0.53135933 </v>
   <v>       0.37382135       0.54041648       0.51907457 </v>
   <v>       0.45958352       0.83340487       0.51907457 </v>
   <v>       0.16659513       0.62617865       0.51907457 </v>
   <v>       0.72282319       0.25956989       0.48081020 </v>
   <v>       0.53674669       0.27717681       0.48081020 </v>
   <v>       0.74043011       0.46325331       0.48081020 </v>
   <v>       0.63812256       0.46942647       0.48168061 </v>
   <v>       0.53057353       0.16869610       0.48168061 </v>
   <v>       0.83130390       0.36187744       0.48168061 </v>
   <v>       0.52481960       0.56836607       0.61087142 </v>
   <v>       0.56531650       0.49940797       0.66046781 </v>
   <v>       0.59911097       0.45786732       0.60852371 </v>
   <v>       0.51179873       0.41103730       0.63624933 </v>
   <v>       0.51128139       0.35612828       0.53110513 </v>
   <v>       0.50306280       0.36052779       0.44331468 </v>
   <v>       0.43163393       0.95645353       0.61087142 </v>
   <v>       0.50059203       0.06590853       0.66046781 </v>
   <v>       0.54213268       0.14124366       0.60852371 </v>
   <v>       0.58896270       0.10076143       0.63624933 </v>
   <v>       0.64387172       0.15515311       0.53110513 </v>
   <v>       0.63947221       0.14253501       0.44331468 </v>
   <v>       0.04354647       0.47518040       0.61087142 </v>
   <v>       0.93409147       0.43468350       0.66046781 </v>
   <v>       0.85875634       0.40088903       0.60852371 </v>
   <v>       0.89923857       0.48820127       0.63624933 </v>
   <v>       0.84484689       0.48871861       0.53110513 </v>
   <v>       0.85746499       0.49693720       0.44331468 </v>
   <v>       0.48851504       0.44809030       0.39317464 </v>
   <v>       0.46711371       0.54797358       0.40330120 </v>
   <v>       0.48952107       0.65277152       0.46889741 </v>
   <v>       0.50913882       0.65827110       0.55565283 </v>
   <v>       0.55190970       0.04042474       0.39317464 </v>
   <v>       0.45202642       0.91914013       0.40330120 </v>
   <v>       0.34722848       0.83674955       0.46889741 </v>
   <v>       0.34172890       0.85086772       0.55565283 </v>
   <v>       0.95957526       0.51148496       0.39317464 </v>
   <v>       0.08085987       0.53288629       0.40330120 </v>
   <v>       0.16325045       0.51047893       0.46889741 </v>
   <v>       0.14913228       0.49086118       0.55565283 </v>
   <v>       0.40347983       0.59119155       0.53254875 </v>
   <v>       0.40880845       0.81228828       0.53254875 </v>
   <v>       0.18771172       0.59652017       0.53254875 </v>
   <v>       0.60589061       0.41717541       0.48052437 </v>
   <v>       0.58282459       0.18871520       0.48052437 </v>
   <v>       0.81128480       0.39410939       0.48052437 </v>
  </varray>
 </structure>
</modeling>
