<?xml version="1.0" encoding="ISO-8859-1"?>
<modeling>
 <generator>
  <i name="program" type="string">vasp </i>
  <i name="version" type="string">5.4.4.18Apr17-6-g9f103f2a35  </i>
  <i name="subversion" type="string">(build Jun 07 2020 16:50:00) complex            parallel </i>
  <i name="platform" type="string">LinuxIFC </i>
  <i name="date" type="string">2023 02 20 </i>
  <i name="time" type="string">07:25:02 </i>
 </generator>
 <incar>
  <i type="string" name="SYSTEM">Simulation for cell shape cell volume r</i>
  <i type="int" name="ISTART">     1</i>
  <i type="string" name="PREC">high</i>
  <i type="string" name="ALGO">48</i>
  <i type="int" name="ICHARG">    11</i>
  <i type="int" name="NELM">   200</i>
  <i type="int" name="IBRION">    -1</i>
  <i name="EDIFF">      0.00001000</i>
  <i name="EDIFFG">     -0.01000000</i>
  <i type="int" name="NSW">     0</i>
  <i type="int" name="ISIF">     2</i>
  <i name="ENCUT">    500.00000000</i>
  <i name="POTIM">      0.30000000</i>
  <i type="string" name="LREAL">A</i>
  <i type="int" name="ISMEAR">     0</i>
  <i name="SIGMA">      0.01000000</i>
  <i type="int" name="NWRITE">     0</i>
  <i type="logical" name="LWAVE"> F  </i>
  <i type="logical" name="LCHARG"> F  </i>
  <v type="int" name="KPOINT_BSE">    -1     0     0     0</v>
  <i type="int" name="NELM">   200</i>
  <i type="string" name="GGA">PE</i>
 </incar>
 <structure name="primitive_cell" >
  <crystal>
   <varray name="basis" >
    <v>      22.46834226      -0.00084755       0.00000000 </v>
    <v>     -11.23495341      19.44832529       0.00000000 </v>
    <v>       0.00000000       0.00000000      20.00000000 </v>
   </varray>
   <i name="volume">   8739.24213485 </i>
   <varray name="rec_basis" >
    <v>       0.04450804       0.02571151       0.00000000 </v>
    <v>       0.00000194       0.05141943       0.00000000 </v>
    <v>       0.00000000       0.00000000       0.05000000 </v>
   </varray>
  </crystal>
  <varray name="positions" >
   <v>      -0.26419786       0.35692173      -0.47615959 </v>
   <v>      -0.29139928       0.40088054      -0.47614902 </v>
   <v>      -0.30897744       0.28569826      -0.47559188 </v>
   <v>      -0.18855400       0.38078217      -0.47704386 </v>
   <v>      -0.28505932       0.25372494      -0.47334834 </v>
   <v>      -0.25942229       0.45681938      -0.47446395 </v>
   <v>      -0.16692683       0.34203527      -0.46034342 </v>
   <v>      -0.38012591       0.25848666      -0.47615988 </v>
   <v>      -0.14694167       0.44660403      -0.49977899 </v>
   <v>      -0.36259699       0.37447827      -0.47662316 </v>
   <v>      -0.16892766       0.47613750       0.49353915 </v>
   <v>      -0.40655099       0.30327494      -0.47608831 </v>
   <v>      -0.38636715       0.42637387      -0.47807499 </v>
   <v>      -0.07419659       0.48002117       0.49511434 </v>
   <v>      -0.35608938       0.16342153       0.49300160 </v>
   <v>      -0.12895480       0.38668452       0.39168736 </v>
   <v>      -0.43186816       0.18278222      -0.47710499 </v>
   <v>      -0.46247479       0.27925695      -0.47427145 </v>
   <v>      -0.10302804       0.34174628       0.44579008 </v>
   <v>      -0.10440074      -0.46483108      -0.39196227 </v>
   <v>      -0.34748504       0.48697299      -0.46209171 </v>
   <v>      -0.40756965       0.14127795      -0.49986490 </v>
   <v>      -0.08374154       0.38781805       0.41420081 </v>
   <v>      -0.04280548       0.45187609       0.45496716 </v>
   <v>      -0.10012406      -0.41192085      -0.45957791 </v>
   <v>      -0.06933083      -0.42739096      -0.42890150 </v>
   <v>      -0.03482862      -0.45725125      -0.47069584 </v>
   <v>      -0.49227074       0.16097583      -0.46039573 </v>
   <v>      -0.45230782       0.40192542       0.49956263 </v>
   <v>      -0.48176769       0.35033600       0.49318010 </v>
   <v>      -0.36165039       0.09907247      -0.39228651 </v>
   <v>      -0.05224524       0.38468981       0.37392871 </v>
   <v>      -0.31302278       0.09411733      -0.45950667 </v>
   <v>      -0.39335909       0.47840363       0.38989394 </v>
   <v>      -0.44694420       0.06848061       0.49491199 </v>
   <v>      -0.34801966      -0.45001059       0.44306361 </v>
   <v>      -0.48556343       0.12313130       0.39135521 </v>
   <v>      -0.03114751      -0.38147977      -0.40206862 </v>
   <v>       0.02883654       0.48639136       0.45278236 </v>
   <v>      -0.35940362       0.06366078      -0.42886551 </v>
   <v>       0.03678370      -0.42322386      -0.47500135 </v>
   <v>      -0.48579520       0.44113873       0.49392359 </v>
   <v>      -0.39433841      -0.47721987       0.41189304 </v>
   <v>      -0.42367729       0.02911531      -0.47079661 </v>
   <v>       0.45993755       0.35672458      -0.39248854 </v>
   <v>       0.44364056       0.09721786       0.44553595 </v>
   <v>       0.47037799       0.07791221       0.41392825 </v>
   <v>       0.06890431      -0.45209795       0.48774915 </v>
   <v>       0.05408564       0.46497657       0.42239081 </v>
   <v>       0.49353750       0.03703183       0.45470776 </v>
   <v>      -0.45807210      -0.49985672       0.45301473 </v>
   <v>      -0.35196665       0.02551018      -0.40162887 </v>
   <v>       0.06791754      -0.37484418      -0.44893600 </v>
   <v>       0.40659465       0.30750107      -0.45955921 </v>
   <v>       0.42222914       0.35403857      -0.42923600 </v>
   <v>      -0.39150983      -0.44311078       0.37122025 </v>
   <v>       0.45169887       0.41802144      -0.47160663 </v>
   <v>       0.43571498       0.04636036       0.37368180 </v>
   <v>      -0.46127439      -0.04252731      -0.47510886 </v>
   <v>       0.14059974      -0.42324507       0.48449729 </v>
   <v>       0.45639387      -0.03465186       0.45250889 </v>
   <v>       0.37653926       0.34649837      -0.40215731 </v>
   <v>      -0.49272362      -0.46286507       0.45042959 </v>
   <v>       0.15653724      -0.45347777       0.46227575 </v>
   <v>      -0.44409251      -0.07361187      -0.44887174 </v>
   <v>       0.41756850       0.45547494      -0.47624318 </v>
   <v>       0.47778635      -0.07470662       0.48753822 </v>
   <v>      -0.47164181      -0.41662326       0.41941611 </v>
   <v>       0.40970708      -0.05995686       0.42214115 </v>
   <v>       0.44609509      -0.48392019       0.48584436 </v>
   <v>       0.19159599      -0.36044416      -0.49309128 </v>
   <v>       0.18158793      -0.31479879      -0.47090814 </v>
   <v>       0.36941224       0.43843670      -0.44986305 </v>
   <v>       0.23615985      -0.45837744      -0.49389068 </v>
   <v>       0.43488648      -0.14643709       0.48437300 </v>
   <v>       0.41724945      -0.44104080       0.48254359 </v>
   <v>       0.26288671      -0.35045070      -0.49743462 </v>
   <v>       0.38866548      -0.16246633       0.46223307 </v>
   <v>       0.44753885      -0.39476402       0.46049633 </v>
   <v>       0.27667405      -0.40461045      -0.49761712 </v>
   <v>      -0.49725941      -0.18724542      -0.47171546 </v>
   <v>       0.44694556      -0.19737329      -0.49355896 </v>
   <v>       0.35457147      -0.45286038      -0.49469669 </v>
   <v>       0.30459167      -0.24199280      -0.49277756 </v>
   <v>       0.30900451       0.49139571      -0.47257011 </v>
   <v>       0.31774682      -0.28253184      -0.49700230 </v>
   <v>       0.34457493      -0.39152893      -0.49838782 </v>
   <v>       0.45248158      -0.31037840      -0.49459580 </v>
   <v>       0.38568170      -0.26872106      -0.49775688 </v>
   <v>       0.39873911      -0.32356813      -0.49802325 </v>
  </varray>
 </structure>
 <varray name="primitive_index" >
  <v type="int" >        1 </v>
  <v type="int" >        5 </v>
  <v type="int" >        2 </v>
  <v type="int" >        6 </v>
  <v type="int" >       45 </v>
  <v type="int" >       44 </v>
  <v type="int" >       80 </v>
  <v type="int" >        3 </v>
  <v type="int" >       86 </v>
  <v type="int" >       27 </v>
  <v type="int" >       58 </v>
  <v type="int" >        4 </v>
  <v type="int" >       28 </v>
  <v type="int" >       21 </v>
  <v type="int" >       63 </v>
  <v type="int" >       70 </v>
  <v type="int" >        7 </v>
  <v type="int" >       43 </v>
  <v type="int" >       72 </v>
  <v type="int" >       57 </v>
  <v type="int" >       79 </v>
  <v type="int" >       87 </v>
  <v type="int" >       38 </v>
  <v type="int" >       36 </v>
  <v type="int" >       56 </v>
  <v type="int" >       22 </v>
  <v type="int" >       20 </v>
  <v type="int" >       81 </v>
  <v type="int" >       85 </v>
  <v type="int" >       53 </v>
  <v type="int" >       62 </v>
  <v type="int" >       71 </v>
  <v type="int" >       61 </v>
  <v type="int" >       65 </v>
  <v type="int" >       25 </v>
  <v type="int" >       67 </v>
  <v type="int" >       75 </v>
  <v type="int" >       55 </v>
  <v type="int" >       37 </v>
  <v type="int" >       26 </v>
  <v type="int" >       19 </v>
  <v type="int" >       17 </v>
  <v type="int" >       34 </v>
  <v type="int" >       24 </v>
  <v type="int" >       52 </v>
  <v type="int" >       77 </v>
  <v type="int" >       42 </v>
  <v type="int" >       35 </v>
  <v type="int" >       69 </v>
  <v type="int" >       40 </v>
  <v type="int" >       32 </v>
  <v type="int" >       60 </v>
  <v type="int" >       54 </v>
  <v type="int" >       51 </v>
  <v type="int" >       18 </v>
  <v type="int" >       66 </v>
  <v type="int" >       16 </v>
  <v type="int" >       76 </v>
  <v type="int" >       23 </v>
  <v type="int" >       89 </v>
  <v type="int" >       41 </v>
  <v type="int" >       50 </v>
  <v type="int" >       33 </v>
  <v type="int" >       73 </v>
  <v type="int" >       59 </v>
  <v type="int" >       15 </v>
  <v type="int" >       39 </v>
  <v type="int" >       64 </v>
  <v type="int" >       74 </v>
  <v type="int" >       31 </v>
  <v type="int" >       13 </v>
  <v type="int" >       83 </v>
  <v type="int" >       49 </v>
  <v type="int" >       47 </v>
  <v type="int" >       90 </v>
  <v type="int" >       88 </v>
  <v type="int" >        8 </v>
  <v type="int" >       78 </v>
  <v type="int" >       68 </v>
  <v type="int" >       12 </v>
  <v type="int" >       84 </v>
  <v type="int" >       14 </v>
  <v type="int" >       30 </v>
  <v type="int" >       48 </v>
  <v type="int" >       82 </v>
  <v type="int" >        9 </v>
  <v type="int" >       29 </v>
  <v type="int" >       46 </v>
  <v type="int" >       10 </v>
  <v type="int" >       11 </v>
 </varray>
 <kpoints>
  <generation param="listgenerated">
   <i name="divisions" type="int">      20 </i>
   <v>       0.00000000       0.00000000       0.00000000 </v>
   <v>       0.50000000       0.00000000       0.00000000 </v>
   <v>       0.33333333       0.33333333       0.00000000 </v>
   <v>       0.00000000       0.00000000       0.00000000 </v>
  </generation>
  <varray name="kpointlist" >
   <v>       0.00000000       0.00000000       0.00000000 </v>
   <v>       0.02631579       0.00000000       0.00000000 </v>
   <v>       0.05263158       0.00000000       0.00000000 </v>
   <v>       0.07894737       0.00000000       0.00000000 </v>
   <v>       0.10526316       0.00000000       0.00000000 </v>
   <v>       0.13157895       0.00000000       0.00000000 </v>
   <v>       0.15789474       0.00000000       0.00000000 </v>
   <v>       0.18421053       0.00000000       0.00000000 </v>
   <v>       0.21052632       0.00000000       0.00000000 </v>
   <v>       0.23684211       0.00000000       0.00000000 </v>
   <v>       0.26315789       0.00000000       0.00000000 </v>
   <v>       0.28947368       0.00000000       0.00000000 </v>
   <v>       0.31578947       0.00000000       0.00000000 </v>
   <v>       0.34210526       0.00000000       0.00000000 </v>
   <v>       0.36842105       0.00000000       0.00000000 </v>
   <v>       0.39473684       0.00000000       0.00000000 </v>
   <v>       0.42105263       0.00000000       0.00000000 </v>
   <v>       0.44736842       0.00000000       0.00000000 </v>
   <v>       0.47368421       0.00000000       0.00000000 </v>
   <v>       0.50000000       0.00000000       0.00000000 </v>
   <v>       0.50000000       0.00000000       0.00000000 </v>
   <v>       0.49122807       0.01754386       0.00000000 </v>
   <v>       0.48245614       0.03508772       0.00000000 </v>
   <v>       0.47368421       0.05263158       0.00000000 </v>
   <v>       0.46491228       0.07017544       0.00000000 </v>
   <v>       0.45614035       0.08771930       0.00000000 </v>
   <v>       0.44736842       0.10526316       0.00000000 </v>
   <v>       0.43859649       0.12280702       0.00000000 </v>
   <v>       0.42982456       0.14035088       0.00000000 </v>
   <v>       0.42105263       0.15789474       0.00000000 </v>
   <v>       0.41228070       0.17543860       0.00000000 </v>
   <v>       0.40350877       0.19298246       0.00000000 </v>
   <v>       0.39473684       0.21052632       0.00000000 </v>
   <v>       0.38596491       0.22807018       0.00000000 </v>
   <v>       0.37719298       0.24561404       0.00000000 </v>
   <v>       0.36842105       0.26315789       0.00000000 </v>
   <v>       0.35964912       0.28070175       0.00000000 </v>
   <v>       0.35087719       0.29824561       0.00000000 </v>
   <v>       0.34210526       0.31578947       0.00000000 </v>
   <v>       0.33333333       0.33333333       0.00000000 </v>
   <v>       0.33333333       0.33333333       0.00000000 </v>
   <v>       0.31578947       0.31578947       0.00000000 </v>
   <v>       0.29824561       0.29824561       0.00000000 </v>
   <v>       0.28070175       0.28070175       0.00000000 </v>
   <v>       0.26315789       0.26315789       0.00000000 </v>
   <v>       0.24561404       0.24561404       0.00000000 </v>
   <v>       0.22807018       0.22807018       0.00000000 </v>
   <v>       0.21052632       0.21052632       0.00000000 </v>
   <v>       0.19298246       0.19298246       0.00000000 </v>
   <v>       0.17543860       0.17543860       0.00000000 </v>
   <v>       0.15789474       0.15789474       0.00000000 </v>
   <v>       0.14035088       0.14035088       0.00000000 </v>
   <v>       0.12280702       0.12280702       0.00000000 </v>
   <v>       0.10526316       0.10526316       0.00000000 </v>
   <v>       0.08771930       0.08771930       0.00000000 </v>
   <v>       0.07017544       0.07017544       0.00000000 </v>
   <v>       0.05263158       0.05263158       0.00000000 </v>
   <v>       0.03508772       0.03508772       0.00000000 </v>
   <v>       0.01754386       0.01754386       0.00000000 </v>
   <v>       0.00000000       0.00000000       0.00000000 </v>
  </varray>
  <varray name="weights" >
   <v>       0.01666667 </v>
   <v>       0.01666667 </v>
   <v>       0.01666667 </v>
   <v>       0.01666667 </v>
   <v>       0.01666667 </v>
   <v>       0.01666667 </v>
   <v>       0.01666667 </v>
   <v>       0.01666667 </v>
   <v>       0.01666667 </v>
   <v>       0.01666667 </v>
   <v>       0.01666667 </v>
   <v>       0.01666667 </v>
   <v>       0.01666667 </v>
   <v>       0.01666667 </v>
   <v>       0.01666667 </v>
   <v>       0.01666667 </v>
   <v>       0.01666667 </v>
   <v>       0.01666667 </v>
   <v>       0.01666667 </v>
   <v>       0.01666667 </v>
   <v>       0.01666667 </v>
   <v>       0.01666667 </v>
   <v>       0.01666667 </v>
   <v>       0.01666667 </v>
   <v>       0.01666667 </v>
   <v>       0.01666667 </v>
   <v>       0.01666667 </v>
   <v>       0.01666667 </v>
   <v>       0.01666667 </v>
   <v>       0.01666667 </v>
   <v>       0.01666667 </v>
   <v>       0.01666667 </v>
   <v>       0.01666667 </v>
   <v>       0.01666667 </v>
   <v>       0.01666667 </v>
   <v>       0.01666667 </v>
   <v>       0.01666667 </v>
   <v>       0.01666667 </v>
   <v>       0.01666667 </v>
   <v>       0.01666667 </v>
   <v>       0.01666667 </v>
   <v>       0.01666667 </v>
   <v>       0.01666667 </v>
   <v>       0.01666667 </v>
   <v>       0.01666667 </v>
   <v>       0.01666667 </v>
   <v>       0.01666667 </v>
   <v>       0.01666667 </v>
   <v>       0.01666667 </v>
   <v>       0.01666667 </v>
   <v>       0.01666667 </v>
   <v>       0.01666667 </v>
   <v>       0.01666667 </v>
   <v>       0.01666667 </v>
   <v>       0.01666667 </v>
   <v>       0.01666667 </v>
   <v>       0.01666667 </v>
   <v>       0.01666667 </v>
   <v>       0.01666667 </v>
   <v>       0.01666667 </v>
  </varray>
 </kpoints>
 <parameters>
  <separator name="general" >
   <i type="string" name="SYSTEM">Simulation for cell shape cell volume r</i>
   <i type="logical" name="LCOMPAT"> F  </i>
  </separator>
  <separator name="electronic" >
   <i type="string" name="PREC">high</i>
   <i name="ENMAX">    500.00000000</i>
   <i name="ENAUG">    644.87300000</i>
   <i name="EDIFF">      0.00001000</i>
   <i type="int" name="IALGO">    38</i>
   <i type="int" name="IWAVPR">    10</i>
   <i type="int" name="NBANDS">   192</i>
   <i name="NELECT">    270.00000000</i>
   <i type="int" name="TURBO">     0</i>
   <i type="int" name="IRESTART">     0</i>
   <i type="int" name="NREBOOT">     0</i>
   <i type="int" name="NMIN">     0</i>
   <i name="EREF">      0.00000000</i>
   <separator name="electronic smearing" >
    <i type="int" name="ISMEAR">     0</i>
    <i name="SIGMA">      0.01000000</i>
    <i name="KSPACING">      0.50000000</i>
    <i type="logical" name="KGAMMA"> T  </i>
   </separator>
   <separator name="electronic projectors" >
    <i type="logical" name="LREAL"> T  </i>
    <v name="ROPT">     -0.00040000     -0.00040000     -0.00040000     -0.00040000</v>
    <i type="int" name="LMAXPAW">  -100</i>
    <i type="int" name="LMAXMIX">     2</i>
    <i type="logical" name="NLSPLINE"> F  </i>
   </separator>
   <separator name="electronic startup" >
    <i type="int" name="ISTART">     1</i>
    <i type="int" name="ICHARG">    11</i>
    <i type="int" name="INIWAV">     1</i>
   </separator>
   <separator name="electronic spin" >
    <i type="int" name="ISPIN">     1</i>
    <i type="logical" name="LNONCOLLINEAR"> F  </i>
    <v name="MAGMOM">      1.00000000      1.00000000      1.00000000      1.00000000      1.00000000      1.00000000      1.00000000      1.00000000      1.00000000      1.00000000      1.00000000      1.00000000      1.00000000      1.00000000      1.00000000      1.00000000      1.00000000      1.00000000      1.00000000      1.00000000
      1.00000000      1.00000000      1.00000000      1.00000000      1.00000000      1.00000000      1.00000000      1.00000000      1.00000000      1.00000000      1.00000000      1.00000000      1.00000000      1.00000000      1.00000000      1.00000000      1.00000000      1.00000000      1.00000000      1.00000000
      1.00000000      1.00000000      1.00000000      1.00000000      1.00000000      1.00000000      1.00000000      1.00000000      1.00000000      1.00000000      1.00000000      1.00000000      1.00000000      1.00000000      1.00000000      1.00000000      1.00000000      1.00000000      1.00000000      1.00000000
      1.00000000      1.00000000      1.00000000      1.00000000      1.00000000      1.00000000      1.00000000      1.00000000      1.00000000      1.00000000      1.00000000      1.00000000      1.00000000      1.00000000      1.00000000      1.00000000      1.00000000      1.00000000      1.00000000      1.00000000
      1.00000000      1.00000000      1.00000000      1.00000000      1.00000000      1.00000000      1.00000000      1.00000000      1.00000000      1.00000000</v>
    <i name="NUPDOWN">     -1.00000000</i>
    <i type="logical" name="LSORBIT"> F  </i>
    <v name="SAXIS">      0.00000000      0.00000000      1.00000000</v>
    <i type="logical" name="LSPIRAL"> F  </i>
    <v name="QSPIRAL">      0.00000000      0.00000000      0.00000000</v>
    <i type="logical" name="LZEROZ"> F  </i>
   </separator>
   <separator name="electronic exchange-correlation" >
    <i type="logical" name="LASPH"> F  </i>
    <i type="logical" name="LMETAGGA"> F  </i>
   </separator>
   <separator name="electronic convergence" >
    <i type="int" name="NELM">   200</i>
    <i type="int" name="NELMDL">     0</i>
    <i type="int" name="NELMIN">     2</i>
    <i name="ENINI">    500.00000000</i>
    <separator name="electronic convergence detail" >
     <i type="logical" name="LDIAG"> T  </i>
     <i type="logical" name="LSUBROT"> F  </i>
     <i name="WEIMIN">      0.00000000</i>
     <i name="EBREAK">      0.00000001</i>
     <i name="DEPER">      0.30000000</i>
     <i type="int" name="NRMM">     4</i>
     <i name="TIME">      0.40000000</i>
    </separator>
   </separator>
   <separator name="electronic mixer" >
    <i name="AMIX">      0.40000000</i>
    <i name="BMIX">      1.00000000</i>
    <i name="AMIN">      0.10000000</i>
    <i name="AMIX_MAG">      1.60000000</i>
    <i name="BMIX_MAG">      1.00000000</i>
    <separator name="electronic mixer details" >
     <i type="int" name="IMIX">     4</i>
     <i type="logical" name="MIXFIRST"> F  </i>
     <i type="int" name="MAXMIX">   -45</i>
     <i name="WC">    100.00000000</i>
     <i type="int" name="INIMIX">     1</i>
     <i type="int" name="MIXPRE">     1</i>
     <i type="int" name="MREMOVE">     5</i>
    </separator>
   </separator>
   <separator name="electronic dipolcorrection" >
    <i type="logical" name="LDIPOL"> F  </i>
    <i type="logical" name="LMONO"> F  </i>
    <i type="int" name="IDIPOL">     0</i>
    <i name="EPSILON">      1.00000000</i>
    <v name="DIPOL">   -100.00000000   -100.00000000   -100.00000000</v>
    <i name="EFIELD">      0.00000000</i>
   </separator>
  </separator>
  <separator name="grids" >
   <i type="int" name="NGX">   168</i>
   <i type="int" name="NGY">   168</i>
   <i type="int" name="NGZ">   150</i>
   <i type="int" name="NGXF">   250</i>
   <i type="int" name="NGYF">   250</i>
   <i type="int" name="NGZF">   224</i>
   <i type="logical" name="ADDGRID"> F  </i>
  </separator>
  <separator name="ionic" >
   <i type="int" name="NSW">     0</i>
   <i type="int" name="IBRION">    -1</i>
   <i type="int" name="MDALGO">     0</i>
   <i type="int" name="ISIF">     2</i>
   <i name="PSTRESS">      0.00000000</i>
   <i name="EDIFFG">     -0.01000000</i>
   <i type="int" name="NFREE">     0</i>
   <i name="POTIM">      0.30000000</i>
   <i name="SMASS">     -3.00000000</i>
   <i name="SCALEE">      1.00000000</i>
  </separator>
  <separator name="ionic md" >
   <i name="TEBEG">      0.00010000</i>
   <i name="TEEND">      0.00010000</i>
   <i type="int" name="NBLOCK">     1</i>
   <i type="int" name="KBLOCK">     1</i>
   <i type="int" name="NPACO">   256</i>
   <i name="APACO">     16.00000000</i>
  </separator>
  <separator name="symmetry" >
   <i type="int" name="ISYM">     2</i>
   <i name="SYMPREC">      0.00001000</i>
  </separator>
  <separator name="dos" >
   <i type="int" name="LORBIT">     0</i>
   <v name="RWIGS">     -1.00000000     -1.00000000     -1.00000000     -1.00000000</v>
   <i type="int" name="NEDOS">   301</i>
   <i name="EMIN">     10.00000000</i>
   <i name="EMAX">    -10.00000000</i>
   <i name="EFERMI">      0.00000000</i>
  </separator>
  <separator name="writing" >
   <i type="int" name="NWRITE">     0</i>
   <i type="logical" name="LWAVE"> F  </i>
   <i type="logical" name="LDOWNSAMPLE"> F  </i>
   <i type="logical" name="LCHARG"> F  </i>
   <i type="logical" name="LPARD"> F  </i>
   <i type="logical" name="LVTOT"> F  </i>
   <i type="logical" name="LVHAR"> F  </i>
   <i type="logical" name="LELF"> F  </i>
   <i type="logical" name="LOPTICS"> F  </i>
   <v name="STM">      0.00000000      0.00000000      0.00000000      0.00000000      0.00000000      0.00000000      0.00000000</v>
  </separator>
  <separator name="performance" >
   <i type="int" name="NPAR">    16</i>
   <i type="int" name="NSIM">     4</i>
   <i type="int" name="NBLK">    -1</i>
   <i type="logical" name="LPLANE"> T  </i>
   <i type="logical" name="LSCALAPACK"> T  </i>
   <i type="logical" name="LSCAAWARE"> F  </i>
   <i type="logical" name="LSCALU"> F  </i>
   <i type="logical" name="LASYNC"> F  </i>
   <i type="logical" name="LORBITALREAL"> F  </i>
  </separator>
  <separator name="miscellaneous" >
   <i type="int" name="IDIOT">     3</i>
   <i type="int" name="ISPECIAL">     0</i>
   <i type="logical" name="LMUSIC"> F  </i>
   <v name="POMASS">     12.01100000      1.00000000     16.00000000     14.00100000</v>
   <v name="DARWINR">      0.00000000      0.00000000      0.00000000      0.00000000</v>
   <v name="DARWINV">      1.00000000      1.00000000      1.00000000      1.00000000</v>
   <i type="logical" name="LCORR"> T  </i>
  </separator>
  <i type="logical" name="GGA_COMPAT"> T  </i>
  <i type="logical" name="LBERRY"> F  </i>
  <i type="int" name="ICORELEVEL">     0</i>
  <i type="logical" name="LDAU"> F  </i>
  <i type="int" name="I_CONSTRAINED_M">     0</i>
  <separator name="electronic exchange-correlation" >
   <i type="string" name="GGA">PE</i>
   <i type="int" name="VOSKOWN">     0</i>
   <i type="logical" name="LHFCALC"> F  </i>
   <i type="string" name="PRECFOCK"></i>
   <i type="logical" name="LSYMGRAD"> F  </i>
   <i type="logical" name="LHFONE"> F  </i>
   <i type="logical" name="LRHFCALC"> F  </i>
   <i type="logical" name="LTHOMAS"> F  </i>
   <i type="logical" name="LMODELHF"> F  </i>
   <i name="ENCUT4O">     -1.00000000</i>
   <i type="int" name="EXXOEP">     0</i>
   <i type="int" name="FOURORBIT">     0</i>
   <i name="AEXX">      0.00000000</i>
   <i name="HFALPHA">      0.00000000</i>
   <i name="MCALPHA">      0.00000000</i>
   <i name="ALDAX">      1.00000000</i>
   <i name="AGGAX">      1.00000000</i>
   <i name="ALDAC">      1.00000000</i>
   <i name="AGGAC">      1.00000000</i>
   <i type="int" name="NKREDX">     1</i>
   <i type="int" name="NKREDY">     1</i>
   <i type="int" name="NKREDZ">     1</i>
   <i type="logical" name="SHIFTRED"> F  </i>
   <i type="logical" name="ODDONLY"> F  </i>
   <i type="logical" name="EVENONLY"> F  </i>
   <i type="int" name="LMAXFOCK">     0</i>
   <i type="int" name="NMAXFOCKAE">     0</i>
   <i type="logical" name="LFOCKAEDFT"> F  </i>
   <i name="HFSCREEN">      0.00000000</i>
   <i name="HFSCREENC">      0.00000000</i>
   <i type="int" name="NBANDSGWLOW">     0</i>
  </separator>
  <separator name="vdW DFT" >
   <i type="logical" name="LUSE_VDW"> F  </i>
   <i name="Zab_VDW">     -0.84910000</i>
   <i name="PARAM1">      0.12340000</i>
   <i name="PARAM2">      1.00000000</i>
   <i name="PARAM3">      0.00000000</i>
  </separator>
  <separator name="model GW" >
   <i type="int" name="MODEL_GW">     0</i>
   <i name="MODEL_EPS0">     58.26161423</i>
   <i name="MODEL_ALPHA">      1.00000000</i>
  </separator>
  <separator name="linear response parameters" >
   <i type="logical" name="LEPSILON"> F  </i>
   <i type="logical" name="LRPA"> F  </i>
   <i type="logical" name="LNABLA"> F  </i>
   <i type="logical" name="LVEL"> F  </i>
   <i type="int" name="KINTER">     0</i>
   <i name="CSHIFT">      0.10000000</i>
   <i name="OMEGAMAX">     -1.00000000</i>
   <i name="DEG_THRESHOLD">      0.00200000</i>
   <i name="RTIME">     -0.10000000</i>
   <i name="WPLASMAI">      0.00000000</i>
   <v name="DFIELD">      0.00000000      0.00000000      0.00000000</v>
   <v name="WPLASMA">      0.00000000      0.00000000      0.00000000      0.00000000      0.00000000      0.00000000      0.00000000      0.00000000      0.00000000</v>
  </separator>
  <separator name="orbital magnetization" >
   <i type="logical" name="NUCIND"> F  </i>
   <v name="MAGPOS">      0.00000000      0.00000000      0.00000000</v>
   <i type="logical" name="LNICSALL"> T  </i>
   <i type="logical" name="ORBITALMAG"> F  </i>
   <i type="logical" name="LMAGBLOCH"> F  </i>
   <i type="logical" name="LCHIMAG"> F  </i>
   <i type="logical" name="LGAUGE"> T  </i>
   <i type="int" name="MAGATOM">     0</i>
   <v name="MAGDIPOL">      0.00000000      0.00000000      0.00000000</v>
   <v name="AVECCONST">      0.00000000      0.00000000      0.00000000</v>
  </separator>
  <separator name="response functions" >
   <i type="logical" name="LADDER"> F  </i>
   <i type="logical" name="LRPAFORCE"> F  </i>
   <i type="logical" name="LFXC"> F  </i>
   <i type="logical" name="LHARTREE"> T  </i>
   <i type="int" name="IBSE">     0</i>
   <v type="int" name="KPOINT">    -1     0     0     0</v>
   <i type="logical" name="LTCTE"> F  </i>
   <i type="logical" name="LTETE"> F  </i>
   <i type="logical" name="LTRIPLET"> F  </i>
   <i type="logical" name="LFXCEPS"> F  </i>
   <i type="logical" name="LFXHEG"> F  </i>
   <i type="int" name="NATURALO">     2</i>
   <i type="logical" name="L2ORDER"> F  </i>
   <i type="logical" name="LMP2LT"> F  </i>
   <i type="logical" name="LUSEW"> F  </i>
   <i name="ENCUTGW">     -2.00000000</i>
   <i name="ENCUTGWSOFT">     -2.00000000</i>
   <i name="ENCUTLF">     -1.00000000</i>
   <i type="int" name="LMAXMP2">    -1</i>
   <i name="SCISSOR">      0.00000000</i>
   <i type="int" name="NOMEGA">     0</i>
   <i type="int" name="NOMEGAR">     0</i>
   <i type="int" name="NBANDSGW">    -1</i>
   <i type="int" name="NBANDSO">    -1</i>
   <i type="int" name="NBANDSV">    -1</i>
   <i type="int" name="NELM">   200</i>
   <i type="int" name="NELMHF">     1</i>
   <i type="int" name="DIM">     3</i>
   <i type="int" name="ANTIRES">     0</i>
   <i name="OMEGAMAX">    -30.00000000</i>
   <i name="OMEGAMIN">    -30.00000000</i>
   <i name="OMEGATL">   -200.00000000</i>
   <i type="int" name="OMEGAGRID">   140</i>
   <i name="CSHIFT">     -0.10000000</i>
   <i type="logical" name="SELFENERGY"> F  </i>
   <i type="logical" name="LSPECTRAL"> F  </i>
   <i type="logical" name="LSPECTRALGW"> F  </i>
   <i type="logical" name="LSINGLES"> F  </i>
   <i type="logical" name="LFERMIGW"> F  </i>
   <i type="logical" name="ODDONLYGW"> F  </i>
   <i type="logical" name="EVENONLYGW"> F  </i>
   <i type="int" name="NKREDLFX">     1</i>
   <i type="int" name="NKREDLFY">     1</i>
   <i type="int" name="NKREDLFZ">     1</i>
   <i type="int" name="MAXMEM">  2800</i>
   <i type="int" name="TELESCOPE">     0</i>
   <i type="int" name="TAUPAR">     1</i>
   <i type="int" name="OMEGAPAR">    -1</i>
   <i name="LAMBDA">      1.00000000</i>
  </separator>
  <separator name="External order field" >
   <i name="OFIELD_KAPPA">      0.00000000</i>
   <v name="OFIELD_K">      0.00000000      0.00000000      0.00000000</v>
   <i name="OFIELD_Q6_NEAR">      0.00000000</i>
   <i name="OFIELD_Q6_FAR">      0.00000000</i>
   <i name="OFIELD_A">      0.00000000</i>
  </separator>
  <separator name="solvation model" >
   <i type="logical" name="LSOL"> F  </i>
  </separator>
 </parameters>
 <atominfo>
  <atoms>      90 </atoms>
  <types>       4 </types>
  <array name="atoms" >
   <dimension dim="1">ion</dimension>
   <field type="string">element</field>
   <field type="int">atomtype</field>
   <set>
    <rc><c>C </c><c>   1</c></rc>
    <rc><c>C </c><c>   1</c></rc>
    <rc><c>C </c><c>   1</c></rc>
    <rc><c>C </c><c>   1</c></rc>
    <rc><c>C </c><c>   1</c></rc>
    <rc><c>C </c><c>   1</c></rc>
    <rc><c>C </c><c>   1</c></rc>
    <rc><c>C </c><c>   1</c></rc>
    <rc><c>C </c><c>   1</c></rc>
    <rc><c>C </c><c>   1</c></rc>
    <rc><c>C </c><c>   1</c></rc>
    <rc><c>C </c><c>   1</c></rc>
    <rc><c>C </c><c>   1</c></rc>
    <rc><c>C </c><c>   1</c></rc>
    <rc><c>C </c><c>   1</c></rc>
    <rc><c>C </c><c>   1</c></rc>
    <rc><c>C </c><c>   1</c></rc>
    <rc><c>C </c><c>   1</c></rc>
    <rc><c>C </c><c>   1</c></rc>
    <rc><c>C </c><c>   1</c></rc>
    <rc><c>C </c><c>   1</c></rc>
    <rc><c>C </c><c>   1</c></rc>
    <rc><c>C </c><c>   1</c></rc>
    <rc><c>C </c><c>   1</c></rc>
    <rc><c>C </c><c>   1</c></rc>
    <rc><c>C </c><c>   1</c></rc>
    <rc><c>C </c><c>   1</c></rc>
    <rc><c>C </c><c>   1</c></rc>
    <rc><c>C </c><c>   1</c></rc>
    <rc><c>C </c><c>   1</c></rc>
    <rc><c>C </c><c>   1</c></rc>
    <rc><c>C </c><c>   1</c></rc>
    <rc><c>C </c><c>   1</c></rc>
    <rc><c>C </c><c>   1</c></rc>
    <rc><c>C </c><c>   1</c></rc>
    <rc><c>C </c><c>   1</c></rc>
    <rc><c>C </c><c>   1</c></rc>
    <rc><c>C </c><c>   1</c></rc>
    <rc><c>C </c><c>   1</c></rc>
    <rc><c>C </c><c>   1</c></rc>
    <rc><c>C </c><c>   1</c></rc>
    <rc><c>C </c><c>   1</c></rc>
    <rc><c>H </c><c>   2</c></rc>
    <rc><c>H </c><c>   2</c></rc>
    <rc><c>H </c><c>   2</c></rc>
    <rc><c>H </c><c>   2</c></rc>
    <rc><c>H </c><c>   2</c></rc>
    <rc><c>H </c><c>   2</c></rc>
    <rc><c>H </c><c>   2</c></rc>
    <rc><c>H </c><c>   2</c></rc>
    <rc><c>H </c><c>   2</c></rc>
    <rc><c>H </c><c>   2</c></rc>
    <rc><c>H </c><c>   2</c></rc>
    <rc><c>H </c><c>   2</c></rc>
    <rc><c>H </c><c>   2</c></rc>
    <rc><c>H </c><c>   2</c></rc>
    <rc><c>H </c><c>   2</c></rc>
    <rc><c>H </c><c>   2</c></rc>
    <rc><c>H </c><c>   2</c></rc>
    <rc><c>H </c><c>   2</c></rc>
    <rc><c>H </c><c>   2</c></rc>
    <rc><c>H </c><c>   2</c></rc>
    <rc><c>H </c><c>   2</c></rc>
    <rc><c>H </c><c>   2</c></rc>
    <rc><c>H </c><c>   2</c></rc>
    <rc><c>H </c><c>   2</c></rc>
    <rc><c>H </c><c>   2</c></rc>
    <rc><c>H </c><c>   2</c></rc>
    <rc><c>H </c><c>   2</c></rc>
    <rc><c>H </c><c>   2</c></rc>
    <rc><c>H </c><c>   2</c></rc>
    <rc><c>H </c><c>   2</c></rc>
    <rc><c>H </c><c>   2</c></rc>
    <rc><c>H </c><c>   2</c></rc>
    <rc><c>H </c><c>   2</c></rc>
    <rc><c>H </c><c>   2</c></rc>
    <rc><c>H </c><c>   2</c></rc>
    <rc><c>H </c><c>   2</c></rc>
    <rc><c>O </c><c>   3</c></rc>
    <rc><c>O </c><c>   3</c></rc>
    <rc><c>O </c><c>   3</c></rc>
    <rc><c>O </c><c>   3</c></rc>
    <rc><c>O </c><c>   3</c></rc>
    <rc><c>O </c><c>   3</c></rc>
    <rc><c>N </c><c>   4</c></rc>
    <rc><c>N </c><c>   4</c></rc>
    <rc><c>N </c><c>   4</c></rc>
    <rc><c>N </c><c>   4</c></rc>
    <rc><c>N </c><c>   4</c></rc>
    <rc><c>N </c><c>   4</c></rc>
   </set>
  </array>
  <array name="atomtypes" >
   <dimension dim="1">type</dimension>
   <field type="int">atomspertype</field>
   <field type="string">element</field>
   <field>mass</field>
   <field>valence</field>
   <field type="string">pseudopotential</field>
   <set>
    <rc><c>  42</c><c>C </c><c>     12.01100000</c><c>      4.00000000</c><c>  PAW_PBE C 08Apr2002                   </c></rc>
    <rc><c>  36</c><c>H </c><c>      1.00000000</c><c>      1.00000000</c><c>  PAW_PBE H 15Jun2001                   </c></rc>
    <rc><c>   6</c><c>O </c><c>     16.00000000</c><c>      6.00000000</c><c>  PAW_PBE O 08Apr2002                   </c></rc>
    <rc><c>   6</c><c>N </c><c>     14.00100000</c><c>      5.00000000</c><c>  PAW_PBE N 08Apr2002                   </c></rc>
   </set>
  </array>
 </atominfo>
 <structure name="initialpos" >
  <crystal>
   <varray name="basis" >
    <v>      22.46834226      -0.00084755       0.00000000 </v>
    <v>     -11.23495341      19.44832529       0.00000000 </v>
    <v>       0.00000000       0.00000000      20.00000000 </v>
   </varray>
   <i name="volume">   8739.24213485 </i>
   <varray name="rec_basis" >
    <v>       0.04450804       0.02571151       0.00000000 </v>
    <v>       0.00000194       0.05141943       0.00000000 </v>
    <v>       0.00000000       0.00000000       0.05000000 </v>
   </varray>
  </crystal>
  <varray name="positions" >
   <v>       0.73580214       0.35692173       0.52384041 </v>
   <v>       0.69102256       0.28569826       0.52440812 </v>
   <v>       0.61987409       0.25848666       0.52384012 </v>
   <v>       0.59344901       0.30327494       0.52391169 </v>
   <v>       0.70860072       0.40088054       0.52385098 </v>
   <v>       0.81144600       0.38078217       0.52295614 </v>
   <v>       0.56813184       0.18278222       0.52289501 </v>
   <v>       0.26288671       0.64954930       0.50256538 </v>
   <v>       0.31774682       0.71746816       0.50299770 </v>
   <v>       0.38568170       0.73127894       0.50224312 </v>
   <v>       0.39873911       0.67643187       0.50197675 </v>
   <v>       0.27667405       0.59538955       0.50238288 </v>
   <v>       0.19159599       0.63955584       0.50690872 </v>
   <v>       0.44694556       0.80262671       0.50644104 </v>
   <v>       0.41756850       0.45547494       0.52375682 </v>
   <v>       0.45169887       0.41802144       0.52839337 </v>
   <v>       0.51420480       0.44113873       0.49392359 </v>
   <v>       0.42222914       0.35403857       0.57076400 </v>
   <v>       0.03678370       0.57677614       0.52499865 </v>
   <v>       0.96517138       0.54274875       0.52930416 </v>
   <v>       0.92580341       0.48002117       0.49511434 </v>
   <v>       0.93066917       0.57260904       0.57109850 </v>
   <v>       0.53872561       0.95747269       0.52489114 </v>
   <v>       0.57632271       0.02911531       0.52920339 </v>
   <v>       0.55305580       0.06848061       0.49491199 </v>
   <v>       0.64059638       0.06366078       0.57113449 </v>
   <v>       0.63740301       0.37447827       0.52337684 </v>
   <v>       0.61363285       0.42637387       0.52192501 </v>
   <v>       0.34457493       0.60847107       0.50161218 </v>
   <v>       0.35457147       0.54713962       0.50530331 </v>
   <v>       0.44609509       0.51607981       0.48584436 </v>
   <v>       0.54192790       0.50014328       0.45301473 </v>
   <v>       0.50727638       0.53713493       0.45042959 </v>
   <v>       0.60566159       0.52278013       0.41189304 </v>
   <v>       0.06890431       0.54790205       0.48774915 </v>
   <v>       0.95719452       0.45187609       0.45496716 </v>
   <v>       0.02883654       0.48639136       0.45278236 </v>
   <v>       0.91625846       0.38781805       0.41420081 </v>
   <v>       0.47778635       0.92529338       0.48753822 </v>
   <v>       0.49353750       0.03703183       0.45470776 </v>
   <v>       0.45639387       0.96534814       0.45250889 </v>
   <v>       0.47037799       0.07791221       0.41392825 </v>
   <v>       0.53752521       0.27925695       0.52572855 </v>
   <v>       0.74057771       0.45681938       0.52553605 </v>
   <v>       0.71494068       0.25372494       0.52665166 </v>
   <v>       0.45248158       0.68962160       0.50540420 </v>
   <v>       0.23615985       0.54162256       0.50610932 </v>
   <v>       0.30459167       0.75800720       0.50722244 </v>
   <v>       0.36941224       0.43843670       0.55013695 </v>
   <v>       0.37653926       0.34649837       0.59784269 </v>
   <v>       0.40659465       0.30750107       0.54044079 </v>
   <v>       0.45993755       0.35672458       0.60751146 </v>
   <v>       0.51823231       0.35033600       0.49318010 </v>
   <v>       0.06791754       0.62515582       0.55106400 </v>
   <v>       0.96885249       0.61852023       0.59793138 </v>
   <v>       0.89987594       0.58807915       0.54042209 </v>
   <v>       0.89559926       0.53516892       0.60803773 </v>
   <v>       0.83107234       0.47613750       0.49353915 </v>
   <v>       0.55590749       0.92638813       0.55112826 </v>
   <v>       0.64803335       0.02551018       0.59837113 </v>
   <v>       0.68697722       0.09411733       0.54049333 </v>
   <v>       0.63834961       0.09907247       0.60771349 </v>
   <v>       0.64391062       0.16342153       0.49300160 </v>
   <v>       0.52835819       0.58337674       0.41941611 </v>
   <v>       0.60664091       0.47840363       0.38989394 </v>
   <v>       0.60849017       0.55688922       0.37122025 </v>
   <v>       0.65198034       0.54998941       0.44306361 </v>
   <v>       0.44753885       0.60523598       0.46049633 </v>
   <v>       0.05408564       0.46497657       0.42239081 </v>
   <v>       0.87104520       0.38668452       0.39168736 </v>
   <v>       0.94775476       0.38468981       0.37392871 </v>
   <v>       0.89697196       0.34174628       0.44579008 </v>
   <v>       0.15653724       0.54652223       0.46227575 </v>
   <v>       0.40970708       0.94004314       0.42214115 </v>
   <v>       0.51443657       0.12313130       0.39135521 </v>
   <v>       0.43571498       0.04636036       0.37368180 </v>
   <v>       0.44364056       0.09721786       0.44553595 </v>
   <v>       0.38866548       0.83753367       0.46223307 </v>
   <v>       0.65251496       0.48697299       0.53790829 </v>
   <v>       0.83307317       0.34203527       0.53965658 </v>
   <v>       0.50772926       0.16097583       0.53960427 </v>
   <v>       0.30900451       0.49139571       0.52742989 </v>
   <v>       0.18158793       0.68520121       0.52909186 </v>
   <v>       0.50274059       0.81275458       0.52828454 </v>
   <v>       0.54769218       0.40192542       0.49956263 </v>
   <v>       0.85305833       0.44660403       0.50022101 </v>
   <v>       0.59243035       0.14127795       0.50013510 </v>
   <v>       0.41724945       0.55895920       0.48254359 </v>
   <v>       0.14059974       0.57675493       0.48449729 </v>
   <v>       0.43488648       0.85356291       0.48437300 </v>
  </varray>
 </structure>
 <calculation>
  <scstep>
   <time name="dav">  269.97  272.76</time>
   <time name="total">  270.11  272.90</time>
   <energy>
    <i name="alphaZ">     37.64547126 </i>
    <i name="ewald">  30348.14489608 </i>
    <i name="hartreedc"> -39287.08434926 </i>
    <i name="XCdc">    970.37596478 </i>
    <i name="pawpsdc">  24242.08501124 </i>
    <i name="pawaedc"> -24292.37691775 </i>
    <i name="eentropy">     -0.00000000 </i>
    <i name="bandstr">  -3432.93272263 </i>
    <i name="atom">  10811.09289016 </i>
    <i name="e_fr_energy">   -603.04975612 </i>
    <i name="e_wo_entrp">   -603.04975612 </i>
    <i name="e_0_energy">   -603.04975612 </i>
   </energy>
  </scstep>
  <scstep>
   <time name="dav">  309.96  316.63</time>
   <time name="total">  309.96  316.63</time>
   <energy>
    <i name="e_fr_energy">   -603.72010540 </i>
    <i name="e_wo_entrp">   -603.72010540 </i>
    <i name="e_0_energy">   -603.72010540 </i>
   </energy>
  </scstep>
  <scstep>
   <time name="dav">  332.44  339.34</time>
   <time name="total">  332.44  339.34</time>
   <energy>
    <i name="e_fr_energy">   -603.73815886 </i>
    <i name="e_wo_entrp">   -603.73815886 </i>
    <i name="e_0_energy">   -603.73815886 </i>
   </energy>
  </scstep>
  <scstep>
   <time name="dav">  306.23  312.70</time>
   <time name="total">  306.23  312.70</time>
   <energy>
    <i name="e_fr_energy">   -603.73856241 </i>
    <i name="e_wo_entrp">   -603.73856241 </i>
    <i name="e_0_energy">   -603.73856241 </i>
   </energy>
  </scstep>
  <scstep>
   <time name="dav">  293.64  299.43</time>
   <time name="total">  293.64  299.43</time>
   <energy>
    <i name="e_fr_energy">   -603.73858439 </i>
    <i name="e_wo_entrp">   -603.73858439 </i>
    <i name="e_0_energy">   -603.73858439 </i>
   </energy>
  </scstep>
  <scstep>
   <time name="dav">  247.17  249.60</time>
   <time name="total">  247.17  249.60</time>
   <energy>
    <i name="alphaZ">     37.64547126 </i>
    <i name="ewald">  30348.14489608 </i>
    <i name="hartreedc"> -39287.08434926 </i>
    <i name="XCdc">    970.37596478 </i>
    <i name="pawpsdc">  24242.08501124 </i>
    <i name="pawaedc"> -24292.37691775 </i>
    <i name="eentropy">     -0.00000000 </i>
    <i name="bandstr">  -3433.62155205 </i>
    <i name="atom">  10811.09289016 </i>
    <i name="e_fr_energy">   -603.73858554 </i>
    <i name="e_wo_entrp">   -603.73858554 </i>
    <i name="e_0_energy">   -603.73858554 </i>
   </energy>
  </scstep>
  <structure>
   <crystal>
    <varray name="basis" >
     <v>      22.46834226      -0.00084755       0.00000000 </v>
     <v>     -11.23495341      19.44832529       0.00000000 </v>
     <v>       0.00000000       0.00000000      20.00000000 </v>
    </varray>
    <i name="volume">   8739.24213485 </i>
    <varray name="rec_basis" >
     <v>       0.04450804       0.02571151       0.00000000 </v>
     <v>       0.00000194       0.05141943       0.00000000 </v>
     <v>       0.00000000       0.00000000       0.05000000 </v>
    </varray>
   </crystal>
   <varray name="positions" >
    <v>       0.73580214       0.35692173       0.52384041 </v>
    <v>       0.69102256       0.28569826       0.52440812 </v>
    <v>       0.61987409       0.25848666       0.52384012 </v>
    <v>       0.59344901       0.30327494       0.52391169 </v>
    <v>       0.70860072       0.40088054       0.52385098 </v>
    <v>       0.81144600       0.38078217       0.52295614 </v>
    <v>       0.56813184       0.18278222       0.52289501 </v>
    <v>       0.26288671       0.64954930       0.50256538 </v>
    <v>       0.31774682       0.71746816       0.50299770 </v>
    <v>       0.38568170       0.73127894       0.50224312 </v>
    <v>       0.39873911       0.67643187       0.50197675 </v>
    <v>       0.27667405       0.59538955       0.50238288 </v>
    <v>       0.19159599       0.63955584       0.50690872 </v>
    <v>       0.44694556       0.80262671       0.50644104 </v>
    <v>       0.41756850       0.45547494       0.52375682 </v>
    <v>       0.45169887       0.41802144       0.52839337 </v>
    <v>       0.51420480       0.44113873       0.49392359 </v>
    <v>       0.42222914       0.35403857       0.57076400 </v>
    <v>       0.03678370       0.57677614       0.52499865 </v>
    <v>       0.96517138       0.54274875       0.52930416 </v>
    <v>       0.92580341       0.48002117       0.49511434 </v>
    <v>       0.93066917       0.57260904       0.57109850 </v>
    <v>       0.53872561       0.95747269       0.52489114 </v>
    <v>       0.57632271       0.02911531       0.52920339 </v>
    <v>       0.55305580       0.06848061       0.49491199 </v>
    <v>       0.64059638       0.06366078       0.57113449 </v>
    <v>       0.63740301       0.37447827       0.52337684 </v>
    <v>       0.61363285       0.42637387       0.52192501 </v>
    <v>       0.34457493       0.60847107       0.50161218 </v>
    <v>       0.35457147       0.54713962       0.50530331 </v>
    <v>       0.44609509       0.51607981       0.48584436 </v>
    <v>       0.54192790       0.50014328       0.45301473 </v>
    <v>       0.50727638       0.53713493       0.45042959 </v>
    <v>       0.60566159       0.52278013       0.41189304 </v>
    <v>       0.06890431       0.54790205       0.48774915 </v>
    <v>       0.95719452       0.45187609       0.45496716 </v>
    <v>       0.02883654       0.48639136       0.45278236 </v>
    <v>       0.91625846       0.38781805       0.41420081 </v>
    <v>       0.47778635       0.92529338       0.48753822 </v>
    <v>       0.49353750       0.03703183       0.45470776 </v>
    <v>       0.45639387       0.96534814       0.45250889 </v>
    <v>       0.47037799       0.07791221       0.41392825 </v>
    <v>       0.53752521       0.27925695       0.52572855 </v>
    <v>       0.74057771       0.45681938       0.52553605 </v>
    <v>       0.71494068       0.25372494       0.52665166 </v>
    <v>       0.45248158       0.68962160       0.50540420 </v>
    <v>       0.23615985       0.54162256       0.50610932 </v>
    <v>       0.30459167       0.75800720       0.50722244 </v>
    <v>       0.36941224       0.43843670       0.55013695 </v>
    <v>       0.37653926       0.34649837       0.59784269 </v>
    <v>       0.40659465       0.30750107       0.54044079 </v>
    <v>       0.45993755       0.35672458       0.60751146 </v>
    <v>       0.51823231       0.35033600       0.49318010 </v>
    <v>       0.06791754       0.62515582       0.55106400 </v>
    <v>       0.96885249       0.61852023       0.59793138 </v>
    <v>       0.89987594       0.58807915       0.54042209 </v>
    <v>       0.89559926       0.53516892       0.60803773 </v>
    <v>       0.83107234       0.47613750       0.49353915 </v>
    <v>       0.55590749       0.92638813       0.55112826 </v>
    <v>       0.64803335       0.02551018       0.59837113 </v>
    <v>       0.68697722       0.09411733       0.54049333 </v>
    <v>       0.63834961       0.09907247       0.60771349 </v>
    <v>       0.64391062       0.16342153       0.49300160 </v>
    <v>       0.52835819       0.58337674       0.41941611 </v>
    <v>       0.60664091       0.47840363       0.38989394 </v>
    <v>       0.60849017       0.55688922       0.37122025 </v>
    <v>       0.65198034       0.54998941       0.44306361 </v>
    <v>       0.44753885       0.60523598       0.46049633 </v>
    <v>       0.05408564       0.46497657       0.42239081 </v>
    <v>       0.87104520       0.38668452       0.39168736 </v>
    <v>       0.94775476       0.38468981       0.37392871 </v>
    <v>       0.89697196       0.34174628       0.44579008 </v>
    <v>       0.15653724       0.54652223       0.46227575 </v>
    <v>       0.40970708       0.94004314       0.42214115 </v>
    <v>       0.51443657       0.12313130       0.39135521 </v>
    <v>       0.43571498       0.04636036       0.37368180 </v>
    <v>       0.44364056       0.09721786       0.44553595 </v>
    <v>       0.38866548       0.83753367       0.46223307 </v>
    <v>       0.65251496       0.48697299       0.53790829 </v>
    <v>       0.83307317       0.34203527       0.53965658 </v>
    <v>       0.50772926       0.16097583       0.53960427 </v>
    <v>       0.30900451       0.49139571       0.52742989 </v>
    <v>       0.18158793       0.68520121       0.52909186 </v>
    <v>       0.50274059       0.81275458       0.52828454 </v>
    <v>       0.54769218       0.40192542       0.49956263 </v>
    <v>       0.85305833       0.44660403       0.50022101 </v>
    <v>       0.59243035       0.14127795       0.50013510 </v>
    <v>       0.41724945       0.55895920       0.48254359 </v>
    <v>       0.14059974       0.57675493       0.48449729 </v>
    <v>       0.43488648       0.85356291       0.48437300 </v>
   </varray>
  </structure>
  <varray name="forces" >
   <v>      -0.00139565       0.00378645       0.00010700 </v>
   <v>      -0.00167082       0.00072829      -0.00249466 </v>
   <v>      -0.00574598      -0.00188192       0.00178956 </v>
   <v>      -0.00122034       0.00090898       0.00038581 </v>
   <v>      -0.00035387       0.00149571      -0.00096059 </v>
   <v>       0.00107423       0.00292107      -0.00160475 </v>
   <v>      -0.00111500      -0.00333429      -0.00049303 </v>
   <v>       0.00070385      -0.00113294      -0.00337197 </v>
   <v>      -0.00189943       0.00043373       0.00175492 </v>
   <v>      -0.00296847      -0.00151247       0.00253019 </v>
   <v>       0.00039992       0.00148724       0.00526012 </v>
   <v>       0.00063561       0.00289323       0.00080384 </v>
   <v>       0.00091515       0.00344364       0.00384593 </v>
   <v>      -0.00277670      -0.00048778       0.00062294 </v>
   <v>       0.00170762       0.00177245      -0.00201616 </v>
   <v>       0.00131736       0.00371440      -0.00119332 </v>
   <v>       0.00033827      -0.00509864       0.00172705 </v>
   <v>       0.00204981       0.00135653      -0.00445854 </v>
   <v>      -0.00099074      -0.00043515      -0.00301641 </v>
   <v>      -0.00019312      -0.00029244       0.00049258 </v>
   <v>       0.00207105       0.00077247      -0.00120137 </v>
   <v>       0.00004575      -0.00357160      -0.00230220 </v>
   <v>       0.00127057       0.00020283       0.00141117 </v>
   <v>       0.00059136      -0.00361595      -0.00057250 </v>
   <v>       0.00060726       0.00019757      -0.00105336 </v>
   <v>       0.00008069      -0.00134195      -0.00526953 </v>
   <v>       0.00030254      -0.00035571      -0.00263569 </v>
   <v>       0.00299698      -0.00318084      -0.00312084 </v>
   <v>       0.00195351      -0.00129210       0.00061238 </v>
   <v>      -0.00301004      -0.00426771       0.00230623 </v>
   <v>       0.00341909      -0.00077697       0.00070455 </v>
   <v>       0.00047151       0.00168118       0.00200805 </v>
   <v>      -0.00202581       0.00054795       0.00393409 </v>
   <v>      -0.00187206       0.00122723       0.00203432 </v>
   <v>      -0.00083271      -0.00176986      -0.00302478 </v>
   <v>       0.00328859      -0.00274128      -0.00106446 </v>
   <v>       0.00467711      -0.00185977      -0.00369608 </v>
   <v>       0.00430528       0.00017268       0.00146330 </v>
   <v>      -0.00426517       0.00562402       0.00304676 </v>
   <v>       0.00000515      -0.00201808       0.00031389 </v>
   <v>       0.00015468       0.00393032       0.00198018 </v>
   <v>       0.00016524      -0.00177910       0.00205628 </v>
   <v>       0.00149883       0.00267976      -0.00130920 </v>
   <v>      -0.00072147       0.00061635       0.00115435 </v>
   <v>       0.00124801      -0.00098286      -0.00152626 </v>
   <v>       0.00075985       0.00040287       0.00128148 </v>
   <v>       0.00134331       0.00002333       0.00150802 </v>
   <v>       0.00041977      -0.00229796       0.00125687 </v>
   <v>      -0.00253081       0.00015537      -0.00017366 </v>
   <v>      -0.00173354      -0.00091977      -0.00131757 </v>
   <v>      -0.00297916      -0.00312442       0.00005453 </v>
   <v>       0.00384865       0.00183104       0.00153290 </v>
   <v>       0.00004858      -0.00431418      -0.00026307 </v>
   <v>      -0.00253227      -0.00038981       0.00139211 </v>
   <v>      -0.00131913      -0.00263935      -0.00174484 </v>
   <v>      -0.00024590      -0.00274270      -0.00003762 </v>
   <v>      -0.00328213      -0.00022017      -0.00335363 </v>
   <v>      -0.00313020      -0.00090317      -0.00380928 </v>
   <v>       0.00103426      -0.00018987      -0.00190514 </v>
   <v>      -0.00076221      -0.00110826       0.00006361 </v>
   <v>      -0.00136293       0.00315857      -0.00123685 </v>
   <v>       0.00232062       0.00203378      -0.00092221 </v>
   <v>      -0.00386883      -0.00262688       0.00144359 </v>
   <v>      -0.00224161       0.00438481       0.00077565 </v>
   <v>      -0.00084653       0.00188618      -0.00149257 </v>
   <v>      -0.00053287       0.00347730      -0.00457709 </v>
   <v>      -0.00036956       0.00073408       0.00684179 </v>
   <v>      -0.00336642      -0.00316233      -0.00043900 </v>
   <v>       0.00290657      -0.00184789      -0.00148723 </v>
   <v>       0.00313734      -0.00273654      -0.00106986 </v>
   <v>       0.00161168      -0.00231266      -0.00289274 </v>
   <v>      -0.00027565      -0.00074122       0.00044876 </v>
   <v>      -0.00033291      -0.00015936       0.00179682 </v>
   <v>      -0.00065282       0.00234841      -0.00181447 </v>
   <v>      -0.00148664       0.00036700      -0.00053958 </v>
   <v>      -0.00036757       0.00106092       0.00129924 </v>
   <v>      -0.00074540      -0.00070243      -0.00069761 </v>
   <v>      -0.00085363       0.00328141       0.00193856 </v>
   <v>       0.00273000       0.00011281       0.00211977 </v>
   <v>      -0.00158215       0.00160787      -0.00033090 </v>
   <v>      -0.00324795       0.00030956       0.00246778 </v>
   <v>       0.00327872       0.00153699      -0.00394986 </v>
   <v>      -0.00161948      -0.00447095      -0.00059322 </v>
   <v>       0.00688438      -0.00367453      -0.00217670 </v>
   <v>       0.00487922       0.00401897       0.00503724 </v>
   <v>       0.00482780       0.00112660       0.00674452 </v>
   <v>      -0.00080478       0.00258445      -0.00030043 </v>
   <v>      -0.00168478       0.00698784      -0.00158901 </v>
   <v>       0.00433409       0.00168442       0.00242670 </v>
   <v>      -0.00484460      -0.00269483       0.00232444 </v>
  </varray>
  <varray name="stress" >
   <v>       0.12298019       0.00318129      -0.00150314 </v>
   <v>       0.00318129       0.11089070      -0.00037247 </v>
   <v>      -0.00150313      -0.00037247      -0.24955213 </v>
  </varray>
  <energy>
   <i name="e_fr_energy">   -605.61755638 </i>
   <i name="e_wo_entrp">   -605.61755638 </i>
   <i name="e_0_energy">     -0.00000000 </i>
  </energy>
  <time name="totalsc"> 2074.44 2109.65</time>
  <eigenvalues>
   <array>
    <dimension dim="1">band</dimension>
    <dimension dim="2">kpoint</dimension>
    <dimension dim="3">spin</dimension>
    <field>eigene</field>
    <field>occ</field>
    <set>
     <set comment="spin 1">
      <set comment="kpoint 1">
       <r>  -25.8317    1.0000 </r>
       <r>  -25.8159    1.0000 </r>
       <r>  -25.8142    1.0000 </r>
       <r>  -25.7458    1.0000 </r>
       <r>  -25.7298    1.0000 </r>
       <r>  -25.7276    1.0000 </r>
       <r>  -23.4694    1.0000 </r>
       <r>  -23.4671    1.0000 </r>
       <r>  -23.4650    1.0000 </r>
       <r>  -23.2394    1.0000 </r>
       <r>  -23.2374    1.0000 </r>
       <r>  -23.2308    1.0000 </r>
       <r>  -21.7598    1.0000 </r>
       <r>  -21.7089    1.0000 </r>
       <r>  -20.9376    1.0000 </r>
       <r>  -20.9364    1.0000 </r>
       <r>  -20.8165    1.0000 </r>
       <r>  -19.4690    1.0000 </r>
       <r>  -19.4684    1.0000 </r>
       <r>  -19.2361    1.0000 </r>
       <r>  -19.2333    1.0000 </r>
       <r>  -19.2311    1.0000 </r>
       <r>  -19.1411    1.0000 </r>
       <r>  -19.1409    1.0000 </r>
       <r>  -18.5930    1.0000 </r>
       <r>  -18.2771    1.0000 </r>
       <r>  -18.2754    1.0000 </r>
       <r>  -17.0680    1.0000 </r>
       <r>  -17.0350    1.0000 </r>
       <r>  -17.0324    1.0000 </r>
       <r>  -16.7350    1.0000 </r>
       <r>  -16.7339    1.0000 </r>
       <r>  -16.7310    1.0000 </r>
       <r>  -16.3974    1.0000 </r>
       <r>  -16.3960    1.0000 </r>
       <r>  -16.2972    1.0000 </r>
       <r>  -15.7306    1.0000 </r>
       <r>  -15.7284    1.0000 </r>
       <r>  -15.0387    1.0000 </r>
       <r>  -14.9047    1.0000 </r>
       <r>  -14.9028    1.0000 </r>
       <r>  -14.5721    1.0000 </r>
       <r>  -14.4960    1.0000 </r>
       <r>  -14.4943    1.0000 </r>
       <r>  -14.3619    1.0000 </r>
       <r>  -14.3596    1.0000 </r>
       <r>  -14.0924    1.0000 </r>
       <r>  -13.8066    1.0000 </r>
       <r>  -13.4072    1.0000 </r>
       <r>  -13.3616    1.0000 </r>
       <r>  -13.3580    1.0000 </r>
       <r>  -12.9580    1.0000 </r>
       <r>  -12.9557    1.0000 </r>
       <r>  -12.6566    1.0000 </r>
       <r>  -12.6278    1.0000 </r>
       <r>  -12.6266    1.0000 </r>
       <r>  -12.3983    1.0000 </r>
       <r>  -12.1308    1.0000 </r>
       <r>  -11.9738    1.0000 </r>
       <r>  -11.5202    1.0000 </r>
       <r>  -11.5178    1.0000 </r>
       <r>  -11.4422    1.0000 </r>
       <r>  -11.3677    1.0000 </r>
       <r>  -11.3049    1.0000 </r>
       <r>  -11.3031    1.0000 </r>
       <r>  -11.1680    1.0000 </r>
       <r>  -11.1651    1.0000 </r>
       <r>  -11.1638    1.0000 </r>
       <r>  -10.4929    1.0000 </r>
       <r>  -10.4339    1.0000 </r>
       <r>  -10.4307    1.0000 </r>
       <r>  -10.4181    1.0000 </r>
       <r>  -10.1829    1.0000 </r>
       <r>  -10.1827    1.0000 </r>
       <r>  -10.1749    1.0000 </r>
       <r>  -10.1592    1.0000 </r>
       <r>  -10.1574    1.0000 </r>
       <r>   -9.9884    1.0000 </r>
       <r>   -9.9870    1.0000 </r>
       <r>   -9.9787    1.0000 </r>
       <r>   -9.8931    1.0000 </r>
       <r>   -9.8913    1.0000 </r>
       <r>   -9.8518    1.0000 </r>
       <r>   -9.7851    1.0000 </r>
       <r>   -9.7715    1.0000 </r>
       <r>   -9.7702    1.0000 </r>
       <r>   -9.6868    1.0000 </r>
       <r>   -9.6586    1.0000 </r>
       <r>   -9.6564    1.0000 </r>
       <r>   -9.6147    1.0000 </r>
       <r>   -9.6118    1.0000 </r>
       <r>   -9.5611    1.0000 </r>
       <r>   -9.5142    1.0000 </r>
       <r>   -9.5125    1.0000 </r>
       <r>   -9.4972    1.0000 </r>
       <r>   -9.2326    1.0000 </r>
       <r>   -8.8691    1.0000 </r>
       <r>   -8.8686    1.0000 </r>
       <r>   -8.8448    1.0000 </r>
       <r>   -8.8213    1.0000 </r>
       <r>   -8.8207    1.0000 </r>
       <r>   -8.6880    1.0000 </r>
       <r>   -8.6792    1.0000 </r>
       <r>   -8.6764    1.0000 </r>
       <r>   -8.5564    1.0000 </r>
       <r>   -8.5542    1.0000 </r>
       <r>   -8.5181    1.0000 </r>
       <r>   -8.4755    1.0000 </r>
       <r>   -8.4750    1.0000 </r>
       <r>   -8.2565    1.0000 </r>
       <r>   -8.1046    1.0000 </r>
       <r>   -8.1023    1.0000 </r>
       <r>   -8.0115    1.0000 </r>
       <r>   -7.2776    1.0000 </r>
       <r>   -7.2738    1.0000 </r>
       <r>   -7.1828    1.0000 </r>
       <r>   -6.6452    1.0000 </r>
       <r>   -6.6431    1.0000 </r>
       <r>   -6.6196    1.0000 </r>
       <r>   -6.6174    1.0000 </r>
       <r>   -6.4057    1.0000 </r>
       <r>   -6.3717    1.0000 </r>
       <r>   -6.3698    1.0000 </r>
       <r>   -5.9114    1.0000 </r>
       <r>   -5.8720    1.0000 </r>
       <r>   -5.7701    1.0000 </r>
       <r>   -5.7677    1.0000 </r>
       <r>   -5.7163    1.0000 </r>
       <r>   -5.6720    1.0000 </r>
       <r>   -5.6693    1.0000 </r>
       <r>   -5.6093    1.0000 </r>
       <r>   -5.6068    1.0000 </r>
       <r>   -5.0414    1.0000 </r>
       <r>   -5.0159    1.0000 </r>
       <r>   -5.0136    1.0000 </r>
       <r>   -2.4089    0.0000 </r>
       <r>   -2.4072    0.0000 </r>
       <r>   -2.2276    0.0000 </r>
       <r>   -2.2241    0.0000 </r>
       <r>   -1.5378    0.0000 </r>
       <r>   -0.9737    0.0000 </r>
       <r>   -0.9008    0.0000 </r>
       <r>   -0.8997    0.0000 </r>
       <r>   -0.8392    0.0000 </r>
       <r>   -0.7470    0.0000 </r>
       <r>   -0.7431    0.0000 </r>
       <r>   -0.5466    0.0000 </r>
       <r>   -0.3709    0.0000 </r>
       <r>   -0.1825    0.0000 </r>
       <r>   -0.1805    0.0000 </r>
       <r>   -0.0896    0.0000 </r>
       <r>   -0.0491    0.0000 </r>
       <r>   -0.0475    0.0000 </r>
       <r>    0.1967    0.0000 </r>
       <r>    0.4714    0.0000 </r>
       <r>    0.4718    0.0000 </r>
       <r>    0.5044    0.0000 </r>
       <r>    0.5409    0.0000 </r>
       <r>    0.5988    0.0000 </r>
       <r>    0.6005    0.0000 </r>
       <r>    0.6039    0.0000 </r>
       <r>    0.6878    0.0000 </r>
       <r>    0.6942    0.0000 </r>
       <r>    0.6975    0.0000 </r>
       <r>    0.7590    0.0000 </r>
       <r>    0.7625    0.0000 </r>
       <r>    0.8049    0.0000 </r>
       <r>    0.8062    0.0000 </r>
       <r>    0.9045    0.0000 </r>
       <r>    0.9238    0.0000 </r>
       <r>    0.9289    0.0000 </r>
       <r>    0.9445    0.0000 </r>
       <r>    1.0349    0.0000 </r>
       <r>    1.0485    0.0000 </r>
       <r>    1.0528    0.0000 </r>
       <r>    1.0562    0.0000 </r>
       <r>    1.0958    0.0000 </r>
       <r>    1.0986    0.0000 </r>
       <r>    1.1289    0.0000 </r>
       <r>    1.2284    0.0000 </r>
       <r>    1.2614    0.0000 </r>
       <r>    1.2643    0.0000 </r>
       <r>    1.2657    0.0000 </r>
       <r>    1.3783    0.0000 </r>
       <r>    1.3819    0.0000 </r>
       <r>    1.4761    0.0000 </r>
       <r>    1.4790    0.0000 </r>
       <r>    1.4957    0.0000 </r>
       <r>    1.4963    0.0000 </r>
       <r>    1.4998    0.0000 </r>
       <r>    1.5225    0.0000 </r>
       <r>    1.6188    0.0000 </r>
      </set>
      <set comment="kpoint 2">
       <r>  -25.8317    1.0000 </r>
       <r>  -25.8159    1.0000 </r>
       <r>  -25.8142    1.0000 </r>
       <r>  -25.7458    1.0000 </r>
       <r>  -25.7298    1.0000 </r>
       <r>  -25.7276    1.0000 </r>
       <r>  -23.4694    1.0000 </r>
       <r>  -23.4671    1.0000 </r>
       <r>  -23.4650    1.0000 </r>
       <r>  -23.2394    1.0000 </r>
       <r>  -23.2374    1.0000 </r>
       <r>  -23.2308    1.0000 </r>
       <r>  -21.7597    1.0000 </r>
       <r>  -21.7090    1.0000 </r>
       <r>  -20.9375    1.0000 </r>
       <r>  -20.9363    1.0000 </r>
       <r>  -20.8167    1.0000 </r>
       <r>  -19.4688    1.0000 </r>
       <r>  -19.4682    1.0000 </r>
       <r>  -19.2361    1.0000 </r>
       <r>  -19.2333    1.0000 </r>
       <r>  -19.2311    1.0000 </r>
       <r>  -19.1416    1.0000 </r>
       <r>  -19.1410    1.0000 </r>
       <r>  -18.5924    1.0000 </r>
       <r>  -18.2774    1.0000 </r>
       <r>  -18.2755    1.0000 </r>
       <r>  -17.0680    1.0000 </r>
       <r>  -17.0350    1.0000 </r>
       <r>  -17.0324    1.0000 </r>
       <r>  -16.7350    1.0000 </r>
       <r>  -16.7339    1.0000 </r>
       <r>  -16.7310    1.0000 </r>
       <r>  -16.3973    1.0000 </r>
       <r>  -16.3960    1.0000 </r>
       <r>  -16.2974    1.0000 </r>
       <r>  -15.7300    1.0000 </r>
       <r>  -15.7283    1.0000 </r>
       <r>  -15.0429    1.0000 </r>
       <r>  -14.9039    1.0000 </r>
       <r>  -14.8998    1.0000 </r>
       <r>  -14.5721    1.0000 </r>
       <r>  -14.4961    1.0000 </r>
       <r>  -14.4943    1.0000 </r>
       <r>  -14.3620    1.0000 </r>
       <r>  -14.3597    1.0000 </r>
       <r>  -14.0920    1.0000 </r>
       <r>  -13.8070    1.0000 </r>
       <r>  -13.4073    1.0000 </r>
       <r>  -13.3616    1.0000 </r>
       <r>  -13.3582    1.0000 </r>
       <r>  -12.9578    1.0000 </r>
       <r>  -12.9556    1.0000 </r>
       <r>  -12.6566    1.0000 </r>
       <r>  -12.6278    1.0000 </r>
       <r>  -12.6266    1.0000 </r>
       <r>  -12.3983    1.0000 </r>
       <r>  -12.1307    1.0000 </r>
       <r>  -11.9739    1.0000 </r>
       <r>  -11.5202    1.0000 </r>
       <r>  -11.5178    1.0000 </r>
       <r>  -11.4421    1.0000 </r>
       <r>  -11.3677    1.0000 </r>
       <r>  -11.3049    1.0000 </r>
       <r>  -11.3031    1.0000 </r>
       <r>  -11.1693    1.0000 </r>
       <r>  -11.1664    1.0000 </r>
       <r>  -11.1613    1.0000 </r>
       <r>  -10.4929    1.0000 </r>
       <r>  -10.4343    1.0000 </r>
       <r>  -10.4308    1.0000 </r>
       <r>  -10.4178    1.0000 </r>
       <r>  -10.1840    1.0000 </r>
       <r>  -10.1827    1.0000 </r>
       <r>  -10.1745    1.0000 </r>
       <r>  -10.1591    1.0000 </r>
       <r>  -10.1567    1.0000 </r>
       <r>   -9.9886    1.0000 </r>
       <r>   -9.9870    1.0000 </r>
       <r>   -9.9785    1.0000 </r>
       <r>   -9.8933    1.0000 </r>
       <r>   -9.8914    1.0000 </r>
       <r>   -9.8517    1.0000 </r>
       <r>   -9.7851    1.0000 </r>
       <r>   -9.7715    1.0000 </r>
       <r>   -9.7702    1.0000 </r>
       <r>   -9.6868    1.0000 </r>
       <r>   -9.6586    1.0000 </r>
       <r>   -9.6564    1.0000 </r>
       <r>   -9.6148    1.0000 </r>
       <r>   -9.6119    1.0000 </r>
       <r>   -9.5610    1.0000 </r>
       <r>   -9.5142    1.0000 </r>
       <r>   -9.5126    1.0000 </r>
       <r>   -9.4971    1.0000 </r>
       <r>   -9.2326    1.0000 </r>
       <r>   -8.8695    1.0000 </r>
       <r>   -8.8686    1.0000 </r>
       <r>   -8.8446    1.0000 </r>
       <r>   -8.8214    1.0000 </r>
       <r>   -8.8203    1.0000 </r>
       <r>   -8.6881    1.0000 </r>
       <r>   -8.6792    1.0000 </r>
       <r>   -8.6764    1.0000 </r>
       <r>   -8.5565    1.0000 </r>
       <r>   -8.5543    1.0000 </r>
       <r>   -8.5179    1.0000 </r>
       <r>   -8.4755    1.0000 </r>
       <r>   -8.4750    1.0000 </r>
       <r>   -8.2565    1.0000 </r>
       <r>   -8.1046    1.0000 </r>
       <r>   -8.1023    1.0000 </r>
       <r>   -8.0116    1.0000 </r>
       <r>   -7.2775    1.0000 </r>
       <r>   -7.2737    1.0000 </r>
       <r>   -7.1829    1.0000 </r>
       <r>   -6.6452    1.0000 </r>
       <r>   -6.6431    1.0000 </r>
       <r>   -6.6195    1.0000 </r>
       <r>   -6.6174    1.0000 </r>
       <r>   -6.4057    1.0000 </r>
       <r>   -6.3717    1.0000 </r>
       <r>   -6.3698    1.0000 </r>
       <r>   -5.9114    1.0000 </r>
       <r>   -5.8720    1.0000 </r>
       <r>   -5.7701    1.0000 </r>
       <r>   -5.7677    1.0000 </r>
       <r>   -5.7163    1.0000 </r>
       <r>   -5.6720    1.0000 </r>
       <r>   -5.6692    1.0000 </r>
       <r>   -5.6094    1.0000 </r>
       <r>   -5.6069    1.0000 </r>
       <r>   -5.0414    1.0000 </r>
       <r>   -5.0159    1.0000 </r>
       <r>   -5.0136    1.0000 </r>
       <r>   -2.4088    0.0000 </r>
       <r>   -2.4072    0.0000 </r>
       <r>   -2.2279    0.0000 </r>
       <r>   -2.2241    0.0000 </r>
       <r>   -1.5373    0.0000 </r>
       <r>   -0.9749    0.0000 </r>
       <r>   -0.9008    0.0000 </r>
       <r>   -0.8996    0.0000 </r>
       <r>   -0.8399    0.0000 </r>
       <r>   -0.7470    0.0000 </r>
       <r>   -0.7416    0.0000 </r>
       <r>   -0.5464    0.0000 </r>
       <r>   -0.3712    0.0000 </r>
       <r>   -0.1825    0.0000 </r>
       <r>   -0.1805    0.0000 </r>
       <r>   -0.0900    0.0000 </r>
       <r>   -0.0490    0.0000 </r>
       <r>   -0.0473    0.0000 </r>
       <r>    0.1968    0.0000 </r>
       <r>    0.4701    0.0000 </r>
       <r>    0.4713    0.0000 </r>
       <r>    0.5055    0.0000 </r>
       <r>    0.5409    0.0000 </r>
       <r>    0.5967    0.0000 </r>
       <r>    0.5991    0.0000 </r>
       <r>    0.6076    0.0000 </r>
       <r>    0.6871    0.0000 </r>
       <r>    0.6947    0.0000 </r>
       <r>    0.6980    0.0000 </r>
       <r>    0.7587    0.0000 </r>
       <r>    0.7617    0.0000 </r>
       <r>    0.8051    0.0000 </r>
       <r>    0.8064    0.0000 </r>
       <r>    0.9055    0.0000 </r>
       <r>    0.9225    0.0000 </r>
       <r>    0.9284    0.0000 </r>
       <r>    0.9461    0.0000 </r>
       <r>    1.0343    0.0000 </r>
       <r>    1.0485    0.0000 </r>
       <r>    1.0527    0.0000 </r>
       <r>    1.0557    0.0000 </r>
       <r>    1.0962    0.0000 </r>
       <r>    1.0996    0.0000 </r>
       <r>    1.1296    0.0000 </r>
       <r>    1.2289    0.0000 </r>
       <r>    1.2585    0.0000 </r>
       <r>    1.2642    0.0000 </r>
       <r>    1.2687    0.0000 </r>
       <r>    1.3780    0.0000 </r>
       <r>    1.3814    0.0000 </r>
       <r>    1.4699    0.0000 </r>
       <r>    1.4755    0.0000 </r>
       <r>    1.4892    0.0000 </r>
       <r>    1.5011    0.0000 </r>
       <r>    1.5116    0.0000 </r>
       <r>    1.5231    0.0000 </r>
       <r>    1.6191    0.0000 </r>
      </set>
      <set comment="kpoint 3">
       <r>  -25.8317    1.0000 </r>
       <r>  -25.8159    1.0000 </r>
       <r>  -25.8142    1.0000 </r>
       <r>  -25.7458    1.0000 </r>
       <r>  -25.7298    1.0000 </r>
       <r>  -25.7276    1.0000 </r>
       <r>  -23.4694    1.0000 </r>
       <r>  -23.4671    1.0000 </r>
       <r>  -23.4650    1.0000 </r>
       <r>  -23.2394    1.0000 </r>
       <r>  -23.2374    1.0000 </r>
       <r>  -23.2308    1.0000 </r>
       <r>  -21.7596    1.0000 </r>
       <r>  -21.7092    1.0000 </r>
       <r>  -20.9372    1.0000 </r>
       <r>  -20.9361    1.0000 </r>
       <r>  -20.8173    1.0000 </r>
       <r>  -19.4686    1.0000 </r>
       <r>  -19.4674    1.0000 </r>
       <r>  -19.2361    1.0000 </r>
       <r>  -19.2333    1.0000 </r>
       <r>  -19.2311    1.0000 </r>
       <r>  -19.1435    1.0000 </r>
       <r>  -19.1410    1.0000 </r>
       <r>  -18.5905    1.0000 </r>
       <r>  -18.2782    1.0000 </r>
       <r>  -18.2757    1.0000 </r>
       <r>  -17.0680    1.0000 </r>
       <r>  -17.0350    1.0000 </r>
       <r>  -17.0324    1.0000 </r>
       <r>  -16.7351    1.0000 </r>
       <r>  -16.7339    1.0000 </r>
       <r>  -16.7310    1.0000 </r>
       <r>  -16.3971    1.0000 </r>
       <r>  -16.3960    1.0000 </r>
       <r>  -16.2981    1.0000 </r>
       <r>  -15.7292    1.0000 </r>
       <r>  -15.7268    1.0000 </r>
       <r>  -15.0542    1.0000 </r>
       <r>  -14.9037    1.0000 </r>
       <r>  -14.8895    1.0000 </r>
       <r>  -14.5720    1.0000 </r>
       <r>  -14.4965    1.0000 </r>
       <r>  -14.4943    1.0000 </r>
       <r>  -14.3624    1.0000 </r>
       <r>  -14.3598    1.0000 </r>
       <r>  -14.0908    1.0000 </r>
       <r>  -13.8082    1.0000 </r>
       <r>  -13.4076    1.0000 </r>
       <r>  -13.3617    1.0000 </r>
       <r>  -13.3586    1.0000 </r>
       <r>  -12.9574    1.0000 </r>
       <r>  -12.9551    1.0000 </r>
       <r>  -12.6567    1.0000 </r>
       <r>  -12.6278    1.0000 </r>
       <r>  -12.6267    1.0000 </r>
       <r>  -12.3984    1.0000 </r>
       <r>  -12.1303    1.0000 </r>
       <r>  -11.9744    1.0000 </r>
       <r>  -11.5202    1.0000 </r>
       <r>  -11.5180    1.0000 </r>
       <r>  -11.4417    1.0000 </r>
       <r>  -11.3677    1.0000 </r>
       <r>  -11.3050    1.0000 </r>
       <r>  -11.3030    1.0000 </r>
       <r>  -11.1724    1.0000 </r>
       <r>  -11.1667    1.0000 </r>
       <r>  -11.1581    1.0000 </r>
       <r>  -10.4928    1.0000 </r>
       <r>  -10.4352    1.0000 </r>
       <r>  -10.4309    1.0000 </r>
       <r>  -10.4169    1.0000 </r>
       <r>  -10.1867    1.0000 </r>
       <r>  -10.1827    1.0000 </r>
       <r>  -10.1737    1.0000 </r>
       <r>  -10.1589    1.0000 </r>
       <r>  -10.1547    1.0000 </r>
       <r>   -9.9889    1.0000 </r>
       <r>   -9.9870    1.0000 </r>
       <r>   -9.9777    1.0000 </r>
       <r>   -9.8937    1.0000 </r>
       <r>   -9.8916    1.0000 </r>
       <r>   -9.8515    1.0000 </r>
       <r>   -9.7851    1.0000 </r>
       <r>   -9.7716    1.0000 </r>
       <r>   -9.7702    1.0000 </r>
       <r>   -9.6869    1.0000 </r>
       <r>   -9.6587    1.0000 </r>
       <r>   -9.6565    1.0000 </r>
       <r>   -9.6149    1.0000 </r>
       <r>   -9.6120    1.0000 </r>
       <r>   -9.5605    1.0000 </r>
       <r>   -9.5143    1.0000 </r>
       <r>   -9.5129    1.0000 </r>
       <r>   -9.4967    1.0000 </r>
       <r>   -9.2326    1.0000 </r>
       <r>   -8.8708    1.0000 </r>
       <r>   -8.8686    1.0000 </r>
       <r>   -8.8442    1.0000 </r>
       <r>   -8.8215    1.0000 </r>
       <r>   -8.8193    1.0000 </r>
       <r>   -8.6885    1.0000 </r>
       <r>   -8.6792    1.0000 </r>
       <r>   -8.6764    1.0000 </r>
       <r>   -8.5570    1.0000 </r>
       <r>   -8.5543    1.0000 </r>
       <r>   -8.5173    1.0000 </r>
       <r>   -8.4754    1.0000 </r>
       <r>   -8.4749    1.0000 </r>
       <r>   -8.2565    1.0000 </r>
       <r>   -8.1045    1.0000 </r>
       <r>   -8.1022    1.0000 </r>
       <r>   -8.0119    1.0000 </r>
       <r>   -7.2772    1.0000 </r>
       <r>   -7.2737    1.0000 </r>
       <r>   -7.1833    1.0000 </r>
       <r>   -6.6452    1.0000 </r>
       <r>   -6.6432    1.0000 </r>
       <r>   -6.6194    1.0000 </r>
       <r>   -6.6174    1.0000 </r>
       <r>   -6.4055    1.0000 </r>
       <r>   -6.3718    1.0000 </r>
       <r>   -6.3699    1.0000 </r>
       <r>   -5.9113    1.0000 </r>
       <r>   -5.8722    1.0000 </r>
       <r>   -5.7701    1.0000 </r>
       <r>   -5.7677    1.0000 </r>
       <r>   -5.7163    1.0000 </r>
       <r>   -5.6717    1.0000 </r>
       <r>   -5.6691    1.0000 </r>
       <r>   -5.6096    1.0000 </r>
       <r>   -5.6070    1.0000 </r>
       <r>   -5.0413    1.0000 </r>
       <r>   -5.0159    1.0000 </r>
       <r>   -5.0138    1.0000 </r>
       <r>   -2.4084    0.0000 </r>
       <r>   -2.4072    0.0000 </r>
       <r>   -2.2286    0.0000 </r>
       <r>   -2.2241    0.0000 </r>
       <r>   -1.5360    0.0000 </r>
       <r>   -0.9785    0.0000 </r>
       <r>   -0.9008    0.0000 </r>
       <r>   -0.8992    0.0000 </r>
       <r>   -0.8417    0.0000 </r>
       <r>   -0.7470    0.0000 </r>
       <r>   -0.7370    0.0000 </r>
       <r>   -0.5457    0.0000 </r>
       <r>   -0.3720    0.0000 </r>
       <r>   -0.1824    0.0000 </r>
       <r>   -0.1804    0.0000 </r>
       <r>   -0.0914    0.0000 </r>
       <r>   -0.0486    0.0000 </r>
       <r>   -0.0464    0.0000 </r>
       <r>    0.1971    0.0000 </r>
       <r>    0.4661    0.0000 </r>
       <r>    0.4703    0.0000 </r>
       <r>    0.5083    0.0000 </r>
       <r>    0.5408    0.0000 </r>
       <r>    0.5922    0.0000 </r>
       <r>    0.5991    0.0000 </r>
       <r>    0.6129    0.0000 </r>
       <r>    0.6857    0.0000 </r>
       <r>    0.6957    0.0000 </r>
       <r>    0.6995    0.0000 </r>
       <r>    0.7568    0.0000 </r>
       <r>    0.7610    0.0000 </r>
       <r>    0.8051    0.0000 </r>
       <r>    0.8076    0.0000 </r>
       <r>    0.9083    0.0000 </r>
       <r>    0.9189    0.0000 </r>
       <r>    0.9277    0.0000 </r>
       <r>    0.9498    0.0000 </r>
       <r>    1.0327    0.0000 </r>
       <r>    1.0490    0.0000 </r>
       <r>    1.0508    0.0000 </r>
       <r>    1.0562    0.0000 </r>
       <r>    1.0973    0.0000 </r>
       <r>    1.1022    0.0000 </r>
       <r>    1.1320    0.0000 </r>
       <r>    1.2297    0.0000 </r>
       <r>    1.2551    0.0000 </r>
       <r>    1.2640    0.0000 </r>
       <r>    1.2728    0.0000 </r>
       <r>    1.3765    0.0000 </r>
       <r>    1.3806    0.0000 </r>
       <r>    1.4561    0.0000 </r>
       <r>    1.4695    0.0000 </r>
       <r>    1.4884    0.0000 </r>
       <r>    1.5084    0.0000 </r>
       <r>    1.5220    0.0000 </r>
       <r>    1.5289    0.0000 </r>
       <r>    1.6199    0.0000 </r>
      </set>
      <set comment="kpoint 4">
       <r>  -25.8317    1.0000 </r>
       <r>  -25.8159    1.0000 </r>
       <r>  -25.8142    1.0000 </r>
       <r>  -25.7458    1.0000 </r>
       <r>  -25.7298    1.0000 </r>
       <r>  -25.7276    1.0000 </r>
       <r>  -23.4694    1.0000 </r>
       <r>  -23.4671    1.0000 </r>
       <r>  -23.4650    1.0000 </r>
       <r>  -23.2394    1.0000 </r>
       <r>  -23.2374    1.0000 </r>
       <r>  -23.2308    1.0000 </r>
       <r>  -21.7593    1.0000 </r>
       <r>  -21.7095    1.0000 </r>
       <r>  -20.9370    1.0000 </r>
       <r>  -20.9355    1.0000 </r>
       <r>  -20.8182    1.0000 </r>
       <r>  -19.4685    1.0000 </r>
       <r>  -19.4657    1.0000 </r>
       <r>  -19.2362    1.0000 </r>
       <r>  -19.2333    1.0000 </r>
       <r>  -19.2311    1.0000 </r>
       <r>  -19.1465    1.0000 </r>
       <r>  -19.1410    1.0000 </r>
       <r>  -18.5873    1.0000 </r>
       <r>  -18.2798    1.0000 </r>
       <r>  -18.2758    1.0000 </r>
       <r>  -17.0680    1.0000 </r>
       <r>  -17.0350    1.0000 </r>
       <r>  -17.0324    1.0000 </r>
       <r>  -16.7351    1.0000 </r>
       <r>  -16.7339    1.0000 </r>
       <r>  -16.7310    1.0000 </r>
       <r>  -16.3967    1.0000 </r>
       <r>  -16.3960    1.0000 </r>
       <r>  -16.2992    1.0000 </r>
       <r>  -15.7290    1.0000 </r>
       <r>  -15.7233    1.0000 </r>
       <r>  -15.0703    1.0000 </r>
       <r>  -14.9036    1.0000 </r>
       <r>  -14.8749    1.0000 </r>
       <r>  -14.5718    1.0000 </r>
       <r>  -14.4972    1.0000 </r>
       <r>  -14.4944    1.0000 </r>
       <r>  -14.3634    1.0000 </r>
       <r>  -14.3597    1.0000 </r>
       <r>  -14.0888    1.0000 </r>
       <r>  -13.8101    1.0000 </r>
       <r>  -13.4080    1.0000 </r>
       <r>  -13.3619    1.0000 </r>
       <r>  -13.3594    1.0000 </r>
       <r>  -12.9569    1.0000 </r>
       <r>  -12.9541    1.0000 </r>
       <r>  -12.6567    1.0000 </r>
       <r>  -12.6279    1.0000 </r>
       <r>  -12.6267    1.0000 </r>
       <r>  -12.3985    1.0000 </r>
       <r>  -12.1295    1.0000 </r>
       <r>  -11.9752    1.0000 </r>
       <r>  -11.5203    1.0000 </r>
       <r>  -11.5182    1.0000 </r>
       <r>  -11.4410    1.0000 </r>
       <r>  -11.3677    1.0000 </r>
       <r>  -11.3051    1.0000 </r>
       <r>  -11.3028    1.0000 </r>
       <r>  -11.1759    1.0000 </r>
       <r>  -11.1667    1.0000 </r>
       <r>  -11.1549    1.0000 </r>
       <r>  -10.4927    1.0000 </r>
       <r>  -10.4367    1.0000 </r>
       <r>  -10.4310    1.0000 </r>
[...]
       <r>   -24.8891     0.0000    12.0000 </r>
       <r>   -24.7885     0.0000    12.0000 </r>
       <r>   -24.6878     0.0000    12.0000 </r>
       <r>   -24.5871     0.0000    12.0000 </r>
       <r>   -24.4864     0.0000    12.0000 </r>
       <r>   -24.3858     0.0000    12.0000 </r>
       <r>   -24.2851     0.0000    12.0000 </r>
       <r>   -24.1844     0.0000    12.0000 </r>
       <r>   -24.0838     0.0000    12.0000 </r>
       <r>   -23.9831     0.0000    12.0000 </r>
       <r>   -23.8824     0.0000    12.0000 </r>
       <r>   -23.7818     0.0000    12.0000 </r>
       <r>   -23.6811     0.0000    12.0000 </r>
       <r>   -23.5804     0.0000    12.0000 </r>
       <r>   -23.4798     2.4697    12.2486 </r>
       <r>   -23.3791     0.0000    18.0000 </r>
       <r>   -23.2784     0.0000    18.0000 </r>
       <r>   -23.1778    59.6021    24.0000 </r>
       <r>   -23.0771     0.0000    24.0000 </r>
       <r>   -22.9764     0.0000    24.0000 </r>
       <r>   -22.8758     0.0000    24.0000 </r>
       <r>   -22.7751     0.0000    24.0000 </r>
       <r>   -22.6744     0.0000    24.0000 </r>
       <r>   -22.5738     0.0000    24.0000 </r>
       <r>   -22.4731     0.0000    24.0000 </r>
       <r>   -22.3724     0.0000    24.0000 </r>
       <r>   -22.2718     0.0000    24.0000 </r>
       <r>   -22.1711     0.0000    24.0000 </r>
       <r>   -22.0704     0.0000    24.0000 </r>
       <r>   -21.9698     0.0000    24.0000 </r>
       <r>   -21.8691     0.0000    24.0000 </r>
       <r>   -21.7684     0.6021    24.0606 </r>
       <r>   -21.6678    19.8674    28.0000 </r>
       <r>   -21.5671     0.0000    28.0000 </r>
       <r>   -21.4664     0.0000    28.0000 </r>
       <r>   -21.3658     0.0000    28.0000 </r>
       <r>   -21.2651     0.0000    28.0000 </r>
       <r>   -21.1644     0.0000    28.0000 </r>
       <r>   -21.0638     0.0000    28.0000 </r>
       <r>   -20.9631     0.0025    28.0002 </r>
       <r>   -20.8624    44.8394    32.5141 </r>
       <r>   -20.7618     7.9464    34.0000 </r>
       <r>   -20.6611     0.0000    34.0000 </r>
       <r>   -20.5604     0.0000    34.0000 </r>
       <r>   -20.4597     0.0000    34.0000 </r>
       <r>   -20.3591     0.0000    34.0000 </r>
       <r>   -20.2584     0.0000    34.0000 </r>
       <r>   -20.1577     0.0000    34.0000 </r>
       <r>   -20.0571     0.0000    34.0000 </r>
       <r>   -19.9564     0.0000    34.0000 </r>
       <r>   -19.8557     0.0000    34.0000 </r>
       <r>   -19.7551     0.0000    34.0000 </r>
       <r>   -19.6544     0.0000    34.0000 </r>
       <r>   -19.5537     0.0000    34.0000 </r>
       <r>   -19.4531    23.9931    36.4153 </r>
       <r>   -19.3524    12.9130    38.0000 </r>
       <r>   -19.2517    10.6262    39.0697 </r>
       <r>   -19.1511    18.6836    45.8810 </r>
       <r>   -19.0504     0.0000    48.0000 </r>
       <r>   -18.9497     0.0000    48.0000 </r>
       <r>   -18.8491     0.0000    48.0000 </r>
       <r>   -18.7484     0.0000    48.0000 </r>
       <r>   -18.6477     0.0000    48.0000 </r>
       <r>   -18.5471     5.9577    48.5997 </r>
       <r>   -18.4464    12.5172    49.9934 </r>
       <r>   -18.3457     8.4832    50.8540 </r>
       <r>   -18.2451    28.1449    54.0000 </r>
       <r>   -18.1444     0.0000    54.0000 </r>
       <r>   -18.0437     0.0000    54.0000 </r>
       <r>   -17.9431     0.0000    54.0000 </r>
       <r>   -17.8424     0.0000    54.0000 </r>
       <r>   -17.7417     0.0000    54.0000 </r>
       <r>   -17.6411     0.0000    54.0000 </r>
       <r>   -17.5404     0.0000    54.0000 </r>
       <r>   -17.4397     0.0000    54.0000 </r>
       <r>   -17.3391     0.0000    54.0000 </r>
       <r>   -17.2384     0.0000    54.0000 </r>
       <r>   -17.1377     0.0000    54.0000 </r>
       <r>   -17.0371    33.4501    57.3673 </r>
       <r>   -16.9364     0.0000    60.0000 </r>
       <r>   -16.8357     0.0000    60.0000 </r>
       <r>   -16.7350    24.4560    62.4619 </r>
       <r>   -16.6344     0.0000    66.0000 </r>
       <r>   -16.5337     0.0000    66.0000 </r>
       <r>   -16.4330     0.0000    66.0000 </r>
       <r>   -16.3324    47.8928    70.8212 </r>
       <r>   -16.2317     5.6283    72.0000 </r>
       <r>   -16.1310     0.0000    72.0000 </r>
       <r>   -16.0304     0.0000    72.0000 </r>
       <r>   -15.9297     0.0000    72.0000 </r>
       <r>   -15.8290     0.0000    72.0000 </r>
       <r>   -15.7284    11.5350    73.1612 </r>
       <r>   -15.6277     4.5498    74.8247 </r>
       <r>   -15.5270    10.0595    75.9460 </r>
       <r>   -15.4264     0.0010    76.0001 </r>
       <r>   -15.3257    10.0285    77.0096 </r>
       <r>   -15.2250     2.6263    77.3311 </r>
       <r>   -15.1244     2.4715    77.6155 </r>
       <r>   -15.0237     3.2981    77.9987 </r>
       <r>   -14.9230     0.0524    78.0053 </r>
       <r>   -14.8224     3.3445    80.4034 </r>
       <r>   -14.7217     2.7580    80.7776 </r>
       <r>   -14.6210    11.2580    82.0000 </r>
       <r>   -14.5204    21.7139    84.1859 </r>
       <r>   -14.4197    29.8904    88.6096 </r>
       <r>   -14.3190    28.1429    91.9998 </r>
       <r>   -14.2184     0.0000    92.0000 </r>
       <r>   -14.1177     0.0003    92.0000 </r>
       <r>   -14.0170    10.2125    93.0281 </r>
       <r>   -13.9164     5.4682    94.1173 </r>
       <r>   -13.8157    10.5000    95.6905 </r>
       <r>   -13.7150     0.0000    96.0000 </r>
       <r>   -13.6144     0.0000    96.0000 </r>
       <r>   -13.5137     0.0000    96.0000 </r>
       <r>   -13.4130     5.8999    96.5939 </r>
       <r>   -13.3124    39.0683   102.0000 </r>
       <r>   -13.2117     0.0000   102.0000 </r>
       <r>   -13.1110     0.0000   102.0000 </r>
       <r>   -13.0104     0.0000   102.0000 </r>
       <r>   -12.9097    38.1096   105.8364 </r>
       <r>   -12.8090     0.0000   106.0000 </r>
       <r>   -12.7083     0.0000   106.0000 </r>
       <r>   -12.6077    59.5060   111.9903 </r>
       <r>   -12.5070     0.0000   112.0000 </r>
       <r>   -12.4063     4.2985   112.4327 </r>
       <r>   -12.3057     0.0000   114.0000 </r>
       <r>   -12.2050     0.0000   114.0000 </r>
       <r>   -12.1043    13.8933   115.3986 </r>
       <r>   -12.0037     4.7858   116.4818 </r>
       <r>   -11.9030     5.6273   118.0000 </r>
       <r>   -11.8023     0.0000   118.0000 </r>
       <r>   -11.7017     0.0000   118.0000 </r>
       <r>   -11.6010     0.0000   118.0000 </r>
       <r>   -11.5003    39.6227   121.9887 </r>
       <r>   -11.3997    19.8668   123.9999 </r>
       <r>   -11.2990    50.0624   129.0397 </r>
       <r>   -11.1983    13.4171   131.3507 </r>
       <r>   -11.0977    42.3827   136.0000 </r>
       <r>   -10.9970     0.0000   136.0000 </r>
       <r>   -10.8963     0.0000   136.0000 </r>
       <r>   -10.7957     0.0000   136.0000 </r>
       <r>   -10.6950     0.0000   136.0000 </r>
       <r>   -10.5943     0.0000   136.0000 </r>
       <r>   -10.4937     6.1254   136.6166 </r>
       <r>   -10.3930    58.1700   143.8558 </r>
       <r>   -10.2923     0.0000   144.0000 </r>
       <r>   -10.1917    22.5253   146.2676 </r>
       <r>   -10.0910    49.9063   153.9909 </r>
       <r>    -9.9903    18.5350   155.8659 </r>
       <r>    -9.8897    46.6250   163.1937 </r>
       <r>    -9.7890    25.6910   166.5862 </r>
       <r>    -9.6883    10.1512   173.0219 </r>
       <r>    -9.5877    79.4578   181.9997 </r>
       <r>    -9.4870    71.1529   189.1628 </r>
       <r>    -9.3863     0.0000   190.0000 </r>
       <r>    -9.2857     0.0000   190.0000 </r>
       <r>    -9.1850    19.8674   192.0000 </r>
       <r>    -9.0843     0.0000   192.0000 </r>
       <r>    -8.9836     0.0000   192.0000 </r>
       <r>    -8.8830    17.0759   193.7190 </r>
       <r>    -8.7823    55.4863   201.5857 </r>
       <r>    -8.6816    38.2540   205.8509 </r>
       <r>    -8.5810     0.9110   208.0917 </r>
       <r>    -8.4803    50.3824   214.6722 </r>
       <r>    -8.3796     0.0000   218.0000 </r>
       <r>    -8.2790     0.0411   218.0041 </r>
       <r>    -8.1783     7.6079   220.0000 </r>
       <r>    -8.0776    39.6431   223.9908 </r>
       <r>    -7.9770    19.8674   226.0000 </r>
       <r>    -7.8763     0.0000   226.0000 </r>
       <r>    -7.7756     0.0000   226.0000 </r>
       <r>    -7.6750     0.0000   226.0000 </r>
       <r>    -7.5743     0.0000   226.0000 </r>
       <r>    -7.4736     0.0000   226.0000 </r>
       <r>    -7.3730     0.0000   226.0000 </r>
       <r>    -7.2723    16.2680   227.6377 </r>
       <r>    -7.1716    30.6113   231.9818 </r>
       <r>    -7.0710     0.0000   232.0000 </r>
       <r>    -6.9703     0.0000   232.0000 </r>
       <r>    -6.8696     0.0000   232.0000 </r>
       <r>    -6.7690     0.0000   232.0000 </r>
       <r>    -6.6683     0.0454   232.0046 </r>
       <r>    -6.5676    68.5302   240.0000 </r>
       <r>    -6.4670     0.0000   240.0000 </r>
       <r>    -6.3663    53.1403   245.3495 </r>
       <r>    -6.2656     0.0000   246.0000 </r>
       <r>    -6.1650     0.0000   246.0000 </r>
       <r>    -6.0643     0.0000   246.0000 </r>
       <r>    -5.9636     0.0000   246.0000 </r>
       <r>    -5.8630    39.0386   249.9299 </r>
       <r>    -5.7623    32.4068   253.2623 </r>
       <r>    -5.6616    41.8150   258.2094 </r>
       <r>    -5.5610    39.7348   264.0000 </r>
       <r>    -5.4603     0.0000   264.0000 </r>
       <r>    -5.3596     0.0000   264.0000 </r>
       <r>    -5.2590     0.0000   264.0000 </r>
       <r>    -5.1583     0.0000   264.0000 </r>
       <r>    -5.0576     0.0556   264.0056 </r>
       <r>    -4.9569    52.3128   270.0000 </r>
       <r>    -4.8563     0.0000   270.0000 </r>
       <r>    -4.7556     0.0000   270.0000 </r>
       <r>    -4.6549     0.0000   270.0000 </r>
       <r>    -4.5543     0.0000   270.0000 </r>
       <r>    -4.4536     0.0000   270.0000 </r>
       <r>    -4.3529     0.0000   270.0000 </r>
       <r>    -4.2523     0.0000   270.0000 </r>
       <r>    -4.1516     0.0000   270.0000 </r>
       <r>    -4.0509     0.0000   270.0000 </r>
       <r>    -3.9503     0.0000   270.0000 </r>
       <r>    -3.8496     0.0000   270.0000 </r>
       <r>    -3.7489     0.0000   270.0000 </r>
       <r>    -3.6483     0.0000   270.0000 </r>
       <r>    -3.5476     0.0000   270.0000 </r>
       <r>    -3.4469     0.0000   270.0000 </r>
       <r>    -3.3463     0.0000   270.0000 </r>
       <r>    -3.2456     0.0000   270.0000 </r>
       <r>    -3.1449     0.0000   270.0000 </r>
       <r>    -3.0443     0.0000   270.0000 </r>
       <r>    -2.9436     0.0000   270.0000 </r>
       <r>    -2.8429     0.0000   270.0000 </r>
       <r>    -2.7423     0.0000   270.0000 </r>
       <r>    -2.6416     0.0000   270.0000 </r>
       <r>    -2.5409     0.0000   270.0000 </r>
       <r>    -2.4403     0.0001   270.0000 </r>
       <r>    -2.3396    39.7347   274.0000 </r>
       <r>    -2.2389    15.6246   275.5729 </r>
       <r>    -2.1383     0.0000   278.0000 </r>
       <r>    -2.0376     0.0000   278.0000 </r>
       <r>    -1.9369     0.0000   278.0000 </r>
       <r>    -1.8363     0.0000   278.0000 </r>
       <r>    -1.7356     0.0000   278.0000 </r>
       <r>    -1.6349     0.0000   278.0000 </r>
       <r>    -1.5343     1.8451   278.1857 </r>
       <r>    -1.4336    14.8588   279.9958 </r>
       <r>    -1.3329     0.0000   280.0000 </r>
       <r>    -1.2323     0.0000   280.0000 </r>
       <r>    -1.1316     4.2233   280.4252 </r>
       <r>    -1.0309     4.8143   281.4847 </r>
       <r>    -0.9302     3.9735   282.0000 </r>
       <r>    -0.8296    59.4567   287.9854 </r>
       <r>    -0.7289    21.9920   290.2139 </r>
       <r>    -0.6282     6.7854   291.0497 </r>
       <r>    -0.5276     5.8938   292.5933 </r>
       <r>    -0.4269    15.9549   294.4728 </r>
       <r>    -0.3262     8.6082   296.0000 </r>
       <r>    -0.2256     0.0125   296.0013 </r>
       <r>    -0.1249    48.0139   301.1670 </r>
       <r>    -0.0242    29.8161   304.5683 </r>
       <r>     0.0764     0.0000   306.0000 </r>
       <r>     0.1771     0.0076   306.0008 </r>
       <r>     0.2778    17.5477   308.0000 </r>
       <r>     0.3784    10.6287   309.0700 </r>
       <r>     0.4791    26.3226   311.9498 </r>
       <r>     0.5798    45.1943   316.8166 </r>
       <r>     0.6804    40.6761   323.1287 </r>
       <r>     0.7811    57.5585   330.8612 </r>
       <r>     0.8818    46.1836   336.6496 </r>
       <r>     0.9824    58.6217   343.7017 </r>
       <r>     1.0831    71.9726   351.2459 </r>
       <r>     1.1838    43.0906   357.0713 </r>
       <r>     1.2844    45.8211   362.9127 </r>
       <r>     1.3851    53.8166   369.5179 </r>
       <r>     1.4858    43.9545   375.3915 </r>
       <r>     1.5864    63.8724   383.3636 </r>
       <r>     1.6871     4.9668   384.0000 </r>
       <r>     1.7878     0.0000   384.0000 </r>
       <r>     1.8884     0.0000   384.0000 </r>
       <r>     1.9891     0.0000   384.0000 </r>
       <r>     2.0898     0.0000   384.0000 </r>
       <r>     2.1904     0.0000   384.0000 </r>
       <r>     2.2911     0.0000   384.0000 </r>
       <r>     2.3918     0.0000   384.0000 </r>
       <r>     2.4924     0.0000   384.0000 </r>
       <r>     2.5931     0.0000   384.0000 </r>
       <r>     2.6938     0.0000   384.0000 </r>
       <r>     2.7945     0.0000   384.0000 </r>
       <r>     2.8951     0.0000   384.0000 </r>
       <r>     2.9958     0.0000   384.0000 </r>
      </set>
     </set>
    </array>
   </total>
  </dos>
 </calculation>
 <structure name="finalpos" >
  <crystal>
   <varray name="basis" >
    <v>      22.46834226      -0.00084755       0.00000000 </v>
    <v>     -11.23495341      19.44832529       0.00000000 </v>
    <v>       0.00000000       0.00000000      20.00000000 </v>
   </varray>
   <i name="volume">   8739.24213485 </i>
   <varray name="rec_basis" >
    <v>       0.04450804       0.02571151       0.00000000 </v>
    <v>       0.00000194       0.05141943       0.00000000 </v>
    <v>       0.00000000       0.00000000       0.05000000 </v>
   </varray>
  </crystal>
  <varray name="positions" >
   <v>       0.73580214       0.35692173       0.52384041 </v>
   <v>       0.69102256       0.28569826       0.52440812 </v>
   <v>       0.61987409       0.25848666       0.52384012 </v>
   <v>       0.59344901       0.30327494       0.52391169 </v>
   <v>       0.70860072       0.40088054       0.52385098 </v>
   <v>       0.81144600       0.38078217       0.52295614 </v>
   <v>       0.56813184       0.18278222       0.52289501 </v>
   <v>       0.26288671       0.64954930       0.50256538 </v>
   <v>       0.31774682       0.71746816       0.50299770 </v>
   <v>       0.38568170       0.73127894       0.50224312 </v>
   <v>       0.39873911       0.67643187       0.50197675 </v>
   <v>       0.27667405       0.59538955       0.50238288 </v>
   <v>       0.19159599       0.63955584       0.50690872 </v>
   <v>       0.44694556       0.80262671       0.50644104 </v>
   <v>       0.41756850       0.45547494       0.52375682 </v>
   <v>       0.45169887       0.41802144       0.52839337 </v>
   <v>       0.51420480       0.44113873       0.49392359 </v>
   <v>       0.42222914       0.35403857       0.57076400 </v>
   <v>       0.03678370       0.57677614       0.52499865 </v>
   <v>       0.96517138       0.54274875       0.52930416 </v>
   <v>       0.92580341       0.48002117       0.49511434 </v>
   <v>       0.93066917       0.57260904       0.57109850 </v>
   <v>       0.53872561       0.95747269       0.52489114 </v>
   <v>       0.57632271       0.02911531       0.52920339 </v>
   <v>       0.55305580       0.06848061       0.49491199 </v>
   <v>       0.64059638       0.06366078       0.57113449 </v>
   <v>       0.63740301       0.37447827       0.52337684 </v>
   <v>       0.61363285       0.42637387       0.52192501 </v>
   <v>       0.34457493       0.60847107       0.50161218 </v>
   <v>       0.35457147       0.54713962       0.50530331 </v>
   <v>       0.44609509       0.51607981       0.48584436 </v>
   <v>       0.54192790       0.50014328       0.45301473 </v>
   <v>       0.50727638       0.53713493       0.45042959 </v>
   <v>       0.60566159       0.52278013       0.41189304 </v>
   <v>       0.06890431       0.54790205       0.48774915 </v>
   <v>       0.95719452       0.45187609       0.45496716 </v>
   <v>       0.02883654       0.48639136       0.45278236 </v>
   <v>       0.91625846       0.38781805       0.41420081 </v>
   <v>       0.47778635       0.92529338       0.48753822 </v>
   <v>       0.49353750       0.03703183       0.45470776 </v>
   <v>       0.45639387       0.96534814       0.45250889 </v>
   <v>       0.47037799       0.07791221       0.41392825 </v>
   <v>       0.53752521       0.27925695       0.52572855 </v>
   <v>       0.74057771       0.45681938       0.52553605 </v>
   <v>       0.71494068       0.25372494       0.52665166 </v>
   <v>       0.45248158       0.68962160       0.50540420 </v>
   <v>       0.23615985       0.54162256       0.50610932 </v>
   <v>       0.30459167       0.75800720       0.50722244 </v>
   <v>       0.36941224       0.43843670       0.55013695 </v>
   <v>       0.37653926       0.34649837       0.59784269 </v>
   <v>       0.40659465       0.30750107       0.54044079 </v>
   <v>       0.45993755       0.35672458       0.60751146 </v>
   <v>       0.51823231       0.35033600       0.49318010 </v>
   <v>       0.06791754       0.62515582       0.55106400 </v>
   <v>       0.96885249       0.61852023       0.59793138 </v>
   <v>       0.89987594       0.58807915       0.54042209 </v>
   <v>       0.89559926       0.53516892       0.60803773 </v>
   <v>       0.83107234       0.47613750       0.49353915 </v>
   <v>       0.55590749       0.92638813       0.55112826 </v>
   <v>       0.64803335       0.02551018       0.59837113 </v>
   <v>       0.68697722       0.09411733       0.54049333 </v>
   <v>       0.63834961       0.09907247       0.60771349 </v>
   <v>       0.64391062       0.16342153       0.49300160 </v>
   <v>       0.52835819       0.58337674       0.41941611 </v>
   <v>       0.60664091       0.47840363       0.38989394 </v>
   <v>       0.60849017       0.55688922       0.37122025 </v>
   <v>       0.65198034       0.54998941       0.44306361 </v>
   <v>       0.44753885       0.60523598       0.46049633 </v>
   <v>       0.05408564       0.46497657       0.42239081 </v>
   <v>       0.87104520       0.38668452       0.39168736 </v>
   <v>       0.94775476       0.38468981       0.37392871 </v>
   <v>       0.89697196       0.34174628       0.44579008 </v>
   <v>       0.15653724       0.54652223       0.46227575 </v>
   <v>       0.40970708       0.94004314       0.42214115 </v>
   <v>       0.51443657       0.12313130       0.39135521 </v>
   <v>       0.43571498       0.04636036       0.37368180 </v>
   <v>       0.44364056       0.09721786       0.44553595 </v>
   <v>       0.38866548       0.83753367       0.46223307 </v>
   <v>       0.65251496       0.48697299       0.53790829 </v>
   <v>       0.83307317       0.34203527       0.53965658 </v>
   <v>       0.50772926       0.16097583       0.53960427 </v>
   <v>       0.30900451       0.49139571       0.52742989 </v>
   <v>       0.18158793       0.68520121       0.52909186 </v>
   <v>       0.50274059       0.81275458       0.52828454 </v>
   <v>       0.54769218       0.40192542       0.49956263 </v>
   <v>       0.85305833       0.44660403       0.50022101 </v>
   <v>       0.59243035       0.14127795       0.50013510 </v>
   <v>       0.41724945       0.55895920       0.48254359 </v>
   <v>       0.14059974       0.57675493       0.48449729 </v>
   <v>       0.43488648       0.85356291       0.48437300 </v>
  </varray>
 </structure>
</modeling>
