<?xml version="1.0" encoding="ISO-8859-1"?>
<modeling>
 <generator>
  <i name="program" type="string">vasp </i>
  <i name="version" type="string">5.4.4.18Apr17-6-g9f103f2a35  </i>
  <i name="subversion" type="string">(build Jun 07 2020 16:50:00) complex            parallel </i>
  <i name="platform" type="string">LinuxIFC </i>
  <i name="date" type="string">2023 02 23 </i>
  <i name="time" type="string">01:34:34 </i>
 </generator>
 <incar>
  <i type="string" name="SYSTEM">Simulation for cell shape cell volume r</i>
  <i type="int" name="ISTART">     1</i>
  <i type="string" name="PREC">high</i>
  <i type="string" name="ALGO">48</i>
  <i type="int" name="ICHARG">    11</i>
  <i type="int" name="NELM">   200</i>
  <i type="int" name="IBRION">    -1</i>
  <i name="EDIFF">      0.00001000</i>
  <i name="EDIFFG">     -0.01000000</i>
  <i type="int" name="NSW">     0</i>
  <i type="int" name="ISIF">     2</i>
  <i name="ENCUT">    500.00000000</i>
  <i name="POTIM">      0.30000000</i>
  <i type="string" name="LREAL">A</i>
  <i type="int" name="ISMEAR">     0</i>
  <i name="SIGMA">      0.01000000</i>
  <i type="int" name="NWRITE">     0</i>
  <i type="logical" name="LWAVE"> F  </i>
  <i type="logical" name="LCHARG"> F  </i>
  <v type="int" name="KPOINT_BSE">    -1     0     0     0</v>
  <i type="int" name="NELM">   200</i>
  <i type="string" name="GGA">PE</i>
 </incar>
 <structure name="primitive_cell" >
  <crystal>
   <varray name="basis" >
    <v>      24.52140669       0.00780037       0.00000000 </v>
    <v>     -12.25393987      21.18726610       0.00000000 </v>
    <v>       0.00000000       0.00000000      20.00000000 </v>
   </varray>
   <i name="volume">  10392.74307933 </i>
   <varray name="rec_basis" >
    <v>       0.04077319       0.02358172       0.00000000 </v>
    <v>      -0.00001501       0.04718948       0.00000000 </v>
    <v>       0.00000000       0.00000000       0.05000000 </v>
   </varray>
  </crystal>
  <varray name="positions" >
   <v>       0.33362917      -0.12636102       0.40574243 </v>
   <v>       0.35154476      -0.15174714       0.43482051 </v>
   <v>       0.31655400      -0.21740262       0.43646514 </v>
   <v>       0.38478205      -0.05131548       0.33426386 </v>
   <v>       0.40819324      -0.11813558       0.47082970 </v>
   <v>       0.42296095      -0.12115864       0.34890759 </v>
   <v>       0.27297786      -0.24233107       0.40790347 </v>
   <v>       0.43525313      -0.03557905       0.34195949 </v>
   <v>       0.44654091      -0.04846377       0.46977808 </v>
   <v>       0.45533084      -0.01040446       0.41264384 </v>
   <v>       0.44956051      -0.08319618       0.32290285 </v>
   <v>       0.33697973      -0.25169696       0.47513065 </v>
   <v>       0.42745041      -0.15297863      -0.48952135 </v>
   <v>       0.46196838       0.00437680       0.30804426 </v>
   <v>       0.39267691      -0.21841583      -0.48728948 </v>
   <v>       0.47518721      -0.02104722      -0.47209439 </v>
   <v>       0.48599731       0.05256606       0.41737600 </v>
   <v>       0.47021823      -0.12746852      -0.45980051 </v>
   <v>       0.22872142      -0.28587231      -0.45664400 </v>
   <v>       0.30240117      -0.31848084       0.47633842 </v>
   <v>       0.20261812      -0.32804086      -0.48725573 </v>
   <v>      -0.49217152       0.04161987      -0.46914018 </v>
   <v>      -0.48822055       0.07986465       0.47635299 </v>
   <v>       0.23578097      -0.35066432       0.47527485 </v>
   <v>       0.40848641      -0.24452722      -0.45637930 </v>
   <v>       0.40791408      -0.28839716       0.40786524 </v>
   <v>       0.13728531      -0.35888530      -0.48916071 </v>
   <v>       0.33465331      -0.35290453       0.47501659 </v>
   <v>      -0.46966457       0.06229378      -0.42133926 </v>
   <v>       0.38943191      -0.33203533       0.43641905 </v>
   <v>       0.20150619      -0.40568311       0.43696242 </v>
   <v>       0.11187417      -0.34149692      -0.45945925 </v>
   <v>       0.48321797       0.15657607       0.40744589 </v>
   <v>       0.10450436      -0.39498571       0.34994903 </v>
   <v>      -0.45638263       0.14919015       0.48075356 </v>
   <v>       0.22634884      -0.42447382       0.40846032 </v>
   <v>       0.10245918      -0.41330488       0.47157496 </v>
   <v>      -0.47721517       0.18276493       0.44131360 </v>
   <v>       0.13596739      -0.43647296       0.43557859 </v>
   <v>       0.06657597      -0.40688973       0.32376320 </v>
   <v>       0.31246637      -0.40866030      -0.48742497 </v>
   <v>       0.42045934      -0.36658912       0.43491350 </v>
   <v>       0.27049130      -0.42482080      -0.45657947 </v>
   <v>      -0.40445187       0.18354926      -0.47676298 </v>
   <v>      -0.38663706       0.15893687      -0.44621800 </v>
   <v>       0.46379362      -0.34832092       0.40589745 </v>
   <v>       0.11060533      -0.47997837       0.40674553 </v>
   <v>       0.03289380      -0.44483790       0.47092099 </v>
   <v>      -0.44764167       0.24814908       0.44435548 </v>
   <v>       0.34353451      -0.44298094      -0.48946849 </v>
   <v>       0.01955603      -0.46901853       0.34311426 </v>
   <v>       0.39774129      -0.42323635       0.47102327 </v>
   <v>       0.00573845      -0.44381364      -0.47074610 </v>
   <v>       0.37928362      -0.43923194       0.34980753 </v>
   <v>      -0.00529061      -0.47403172       0.41391025 </v>
   <v>      -0.46424374       0.27362460       0.41351445 </v>
   <v>       0.03576011       0.49655861       0.33541149 </v>
   <v>      -0.37409314       0.24904202      -0.47404384 </v>
   <v>      -0.02056284      -0.48271012       0.30941481 </v>
   <v>      -0.39534018       0.28215941       0.48644744 </v>
   <v>       0.32650788      -0.48574330      -0.45965436 </v>
   <v>       0.39095818      -0.46542248       0.32353612 </v>
   <v>       0.48742975      -0.39965451       0.33442683 </v>
   <v>      -0.05680209      -0.47364177      -0.46744647 </v>
   <v>      -0.06809745       0.49384521       0.41898011 </v>
   <v>      -0.33336130       0.27521962      -0.44160071 </v>
   <v>       0.42956787      -0.46104594       0.47022536 </v>
   <v>       0.45310089      -0.45031605       0.34234512 </v>
   <v>      -0.46791799       0.31820929      -0.44178440 </v>
   <v>      -0.07718714      -0.47187868      -0.41943585 </v>
   <v>      -0.09516972       0.49239477       0.47804947 </v>
   <v>      -0.28852836       0.32335179       0.41412137 </v>
   <v>       0.45861587      -0.47000411       0.41306453 </v>
   <v>      -0.36378221       0.34884550       0.48838565 </v>
   <v>       0.42897011      -0.48901727      -0.47139347 </v>
   <v>      -0.45307692       0.35919100      -0.47402215 </v>
   <v>       0.46649700      -0.47690317       0.30847183 </v>
   <v>      -0.39870957       0.38051663       0.48655822 </v>
   <v>      -0.26316193       0.36537395       0.44513010 </v>
   <v>      -0.29719120       0.38387141       0.48693508 </v>
   <v>       0.46971045       0.37200612      -0.44602610 </v>
   <v>      -0.48786320       0.38983769      -0.47652062 </v>
   <v>      -0.16439560       0.45520866       0.48228057 </v>
   <v>      -0.17418649      -0.48464156      -0.44477833 </v>
   <v>       0.49100078       0.49949873       0.41787300 </v>
   <v>       0.45912313       0.47854034      -0.46830562 </v>
   <v>      -0.38011629       0.43309545       0.44466817 </v>
   <v>      -0.19874214       0.47299034      -0.47550394 </v>
   <v>      -0.17167064       0.38740886       0.40890781 </v>
   <v>      -0.33805788       0.44970871       0.41384860 </v>
   <v>      -0.19787805       0.40089980       0.44260179 </v>
   <v>       0.49283780       0.47410653       0.47699448 </v>
   <v>      -0.46994944       0.44207624       0.48126339 </v>
   <v>       0.45786322       0.45658629      -0.42030146 </v>
   <v>      -0.41560483       0.46292061       0.44180888 </v>
   <v>      -0.26417869       0.43814575      -0.47332022 </v>
   <v>      -0.29035411       0.45286867      -0.44108247 </v>
   <v>      -0.40200225      -0.49729794       0.40809666 </v>
  </varray>
 </structure>
 <varray name="primitive_index" >
  <v type="int" >        1 </v>
  <v type="int" >       57 </v>
  <v type="int" >       56 </v>
  <v type="int" >       25 </v>
  <v type="int" >       58 </v>
  <v type="int" >       27 </v>
  <v type="int" >        2 </v>
  <v type="int" >       87 </v>
  <v type="int" >       84 </v>
  <v type="int" >       86 </v>
  <v type="int" >       37 </v>
  <v type="int" >       48 </v>
  <v type="int" >       59 </v>
  <v type="int" >       26 </v>
  <v type="int" >       60 </v>
  <v type="int" >       45 </v>
  <v type="int" >       42 </v>
  <v type="int" >        4 </v>
  <v type="int" >        7 </v>
  <v type="int" >       40 </v>
  <v type="int" >       61 </v>
  <v type="int" >       96 </v>
  <v type="int" >       85 </v>
  <v type="int" >       49 </v>
  <v type="int" >        3 </v>
  <v type="int" >        5 </v>
  <v type="int" >       62 </v>
  <v type="int" >       50 </v>
  <v type="int" >       34 </v>
  <v type="int" >       51 </v>
  <v type="int" >       65 </v>
  <v type="int" >        8 </v>
  <v type="int" >       16 </v>
  <v type="int" >       30 </v>
  <v type="int" >       76 </v>
  <v type="int" >       10 </v>
  <v type="int" >       63 </v>
  <v type="int" >       77 </v>
  <v type="int" >       64 </v>
  <v type="int" >       38 </v>
  <v type="int" >       55 </v>
  <v type="int" >       52 </v>
  <v type="int" >       11 </v>
  <v type="int" >       75 </v>
  <v type="int" >       13 </v>
  <v type="int" >        6 </v>
  <v type="int" >        9 </v>
  <v type="int" >       88 </v>
  <v type="int" >       78 </v>
  <v type="int" >       54 </v>
  <v type="int" >       91 </v>
  <v type="int" >       53 </v>
  <v type="int" >       46 </v>
  <v type="int" >       33 </v>
  <v type="int" >       90 </v>
  <v type="int" >       15 </v>
  <v type="int" >       28 </v>
  <v type="int" >       74 </v>
  <v type="int" >       29 </v>
  <v type="int" >       66 </v>
  <v type="int" >       12 </v>
  <v type="int" >       39 </v>
  <v type="int" >       31 </v>
  <v type="int" >       97 </v>
  <v type="int" >       43 </v>
  <v type="int" >       14 </v>
  <v type="int" >       92 </v>
  <v type="int" >       95 </v>
  <v type="int" >       17 </v>
  <v type="int" >       35 </v>
  <v type="int" >       89 </v>
  <v type="int" >       19 </v>
  <v type="int" >       94 </v>
  <v type="int" >       41 </v>
  <v type="int" >       47 </v>
  <v type="int" >       69 </v>
  <v type="int" >       32 </v>
  <v type="int" >       68 </v>
  <v type="int" >       79 </v>
  <v type="int" >       67 </v>
  <v type="int" >       18 </v>
  <v type="int" >       70 </v>
  <v type="int" >       81 </v>
  <v type="int" >       21 </v>
  <v type="int" >       44 </v>
  <v type="int" >       98 </v>
  <v type="int" >       73 </v>
  <v type="int" >       82 </v>
  <v type="int" >       20 </v>
  <v type="int" >       23 </v>
  <v type="int" >       80 </v>
  <v type="int" >       93 </v>
  <v type="int" >       71 </v>
  <v type="int" >       36 </v>
  <v type="int" >       72 </v>
  <v type="int" >       83 </v>
  <v type="int" >       22 </v>
  <v type="int" >       24 </v>
 </varray>
 <kpoints>
  <generation param="listgenerated">
   <i name="divisions" type="int">      20 </i>
   <v>       0.00000000       0.00000000       0.00000000 </v>
   <v>       0.50000000       0.00000000       0.00000000 </v>
   <v>       0.33333333       0.33333333       0.00000000 </v>
   <v>       0.00000000       0.00000000       0.00000000 </v>
  </generation>
  <varray name="kpointlist" >
   <v>       0.00000000       0.00000000       0.00000000 </v>
   <v>       0.02631579       0.00000000       0.00000000 </v>
   <v>       0.05263158       0.00000000       0.00000000 </v>
   <v>       0.07894737       0.00000000       0.00000000 </v>
   <v>       0.10526316       0.00000000       0.00000000 </v>
   <v>       0.13157895       0.00000000       0.00000000 </v>
   <v>       0.15789474       0.00000000       0.00000000 </v>
   <v>       0.18421053       0.00000000       0.00000000 </v>
   <v>       0.21052632       0.00000000       0.00000000 </v>
   <v>       0.23684211       0.00000000       0.00000000 </v>
   <v>       0.26315789       0.00000000       0.00000000 </v>
   <v>       0.28947368       0.00000000       0.00000000 </v>
   <v>       0.31578947       0.00000000       0.00000000 </v>
   <v>       0.34210526       0.00000000       0.00000000 </v>
   <v>       0.36842105       0.00000000       0.00000000 </v>
   <v>       0.39473684       0.00000000       0.00000000 </v>
   <v>       0.42105263       0.00000000       0.00000000 </v>
   <v>       0.44736842       0.00000000       0.00000000 </v>
   <v>       0.47368421       0.00000000       0.00000000 </v>
   <v>       0.50000000       0.00000000       0.00000000 </v>
   <v>       0.50000000       0.00000000       0.00000000 </v>
   <v>       0.49122807       0.01754386       0.00000000 </v>
   <v>       0.48245614       0.03508772       0.00000000 </v>
   <v>       0.47368421       0.05263158       0.00000000 </v>
   <v>       0.46491228       0.07017544       0.00000000 </v>
   <v>       0.45614035       0.08771930       0.00000000 </v>
   <v>       0.44736842       0.10526316       0.00000000 </v>
   <v>       0.43859649       0.12280702       0.00000000 </v>
   <v>       0.42982456       0.14035088       0.00000000 </v>
   <v>       0.42105263       0.15789474       0.00000000 </v>
   <v>       0.41228070       0.17543860       0.00000000 </v>
   <v>       0.40350877       0.19298246       0.00000000 </v>
   <v>       0.39473684       0.21052632       0.00000000 </v>
   <v>       0.38596491       0.22807018       0.00000000 </v>
   <v>       0.37719298       0.24561404       0.00000000 </v>
   <v>       0.36842105       0.26315789       0.00000000 </v>
   <v>       0.35964912       0.28070175       0.00000000 </v>
   <v>       0.35087719       0.29824561       0.00000000 </v>
   <v>       0.34210526       0.31578947       0.00000000 </v>
   <v>       0.33333333       0.33333333       0.00000000 </v>
   <v>       0.33333333       0.33333333       0.00000000 </v>
   <v>       0.31578947       0.31578947       0.00000000 </v>
   <v>       0.29824561       0.29824561       0.00000000 </v>
   <v>       0.28070175       0.28070175       0.00000000 </v>
   <v>       0.26315789       0.26315789       0.00000000 </v>
   <v>       0.24561404       0.24561404       0.00000000 </v>
   <v>       0.22807018       0.22807018       0.00000000 </v>
   <v>       0.21052632       0.21052632       0.00000000 </v>
   <v>       0.19298246       0.19298246       0.00000000 </v>
   <v>       0.17543860       0.17543860       0.00000000 </v>
   <v>       0.15789474       0.15789474       0.00000000 </v>
   <v>       0.14035088       0.14035088       0.00000000 </v>
   <v>       0.12280702       0.12280702       0.00000000 </v>
   <v>       0.10526316       0.10526316       0.00000000 </v>
   <v>       0.08771930       0.08771930       0.00000000 </v>
   <v>       0.07017544       0.07017544       0.00000000 </v>
   <v>       0.05263158       0.05263158       0.00000000 </v>
   <v>       0.03508772       0.03508772       0.00000000 </v>
   <v>       0.01754386       0.01754386       0.00000000 </v>
   <v>       0.00000000       0.00000000       0.00000000 </v>
  </varray>
  <varray name="weights" >
   <v>       0.01666667 </v>
   <v>       0.01666667 </v>
   <v>       0.01666667 </v>
   <v>       0.01666667 </v>
   <v>       0.01666667 </v>
   <v>       0.01666667 </v>
   <v>       0.01666667 </v>
   <v>       0.01666667 </v>
   <v>       0.01666667 </v>
   <v>       0.01666667 </v>
   <v>       0.01666667 </v>
   <v>       0.01666667 </v>
   <v>       0.01666667 </v>
   <v>       0.01666667 </v>
   <v>       0.01666667 </v>
   <v>       0.01666667 </v>
   <v>       0.01666667 </v>
   <v>       0.01666667 </v>
   <v>       0.01666667 </v>
   <v>       0.01666667 </v>
   <v>       0.01666667 </v>
   <v>       0.01666667 </v>
   <v>       0.01666667 </v>
   <v>       0.01666667 </v>
   <v>       0.01666667 </v>
   <v>       0.01666667 </v>
   <v>       0.01666667 </v>
   <v>       0.01666667 </v>
   <v>       0.01666667 </v>
   <v>       0.01666667 </v>
   <v>       0.01666667 </v>
   <v>       0.01666667 </v>
   <v>       0.01666667 </v>
   <v>       0.01666667 </v>
   <v>       0.01666667 </v>
   <v>       0.01666667 </v>
   <v>       0.01666667 </v>
   <v>       0.01666667 </v>
   <v>       0.01666667 </v>
   <v>       0.01666667 </v>
   <v>       0.01666667 </v>
   <v>       0.01666667 </v>
   <v>       0.01666667 </v>
   <v>       0.01666667 </v>
   <v>       0.01666667 </v>
   <v>       0.01666667 </v>
   <v>       0.01666667 </v>
   <v>       0.01666667 </v>
   <v>       0.01666667 </v>
   <v>       0.01666667 </v>
   <v>       0.01666667 </v>
   <v>       0.01666667 </v>
   <v>       0.01666667 </v>
   <v>       0.01666667 </v>
   <v>       0.01666667 </v>
   <v>       0.01666667 </v>
   <v>       0.01666667 </v>
   <v>       0.01666667 </v>
   <v>       0.01666667 </v>
   <v>       0.01666667 </v>
  </varray>
 </kpoints>
 <parameters>
  <separator name="general" >
   <i type="string" name="SYSTEM">Simulation for cell shape cell volume r</i>
   <i type="logical" name="LCOMPAT"> F  </i>
  </separator>
  <separator name="electronic" >
   <i type="string" name="PREC">high</i>
   <i name="ENMAX">    500.00000000</i>
   <i name="ENAUG">    644.87300000</i>
   <i name="EDIFF">      0.00001000</i>
   <i type="int" name="IALGO">    38</i>
   <i type="int" name="IWAVPR">    10</i>
   <i type="int" name="NBANDS">   208</i>
   <i name="NELECT">    298.00000000</i>
   <i type="int" name="TURBO">     0</i>
   <i type="int" name="IRESTART">     0</i>
   <i type="int" name="NREBOOT">     0</i>
   <i type="int" name="NMIN">     0</i>
   <i name="EREF">      0.00000000</i>
   <separator name="electronic smearing" >
    <i type="int" name="ISMEAR">     0</i>
    <i name="SIGMA">      0.01000000</i>
    <i name="KSPACING">      0.50000000</i>
    <i type="logical" name="KGAMMA"> T  </i>
   </separator>
   <separator name="electronic projectors" >
    <i type="logical" name="LREAL"> T  </i>
    <v name="ROPT">     -0.00040000     -0.00040000     -0.00040000     -0.00040000</v>
    <i type="int" name="LMAXPAW">  -100</i>
    <i type="int" name="LMAXMIX">     2</i>
    <i type="logical" name="NLSPLINE"> F  </i>
   </separator>
   <separator name="electronic startup" >
    <i type="int" name="ISTART">     1</i>
    <i type="int" name="ICHARG">    11</i>
    <i type="int" name="INIWAV">     1</i>
   </separator>
   <separator name="electronic spin" >
    <i type="int" name="ISPIN">     1</i>
    <i type="logical" name="LNONCOLLINEAR"> F  </i>
    <v name="MAGMOM">      1.00000000      1.00000000      1.00000000      1.00000000      1.00000000      1.00000000      1.00000000      1.00000000      1.00000000      1.00000000      1.00000000      1.00000000      1.00000000      1.00000000      1.00000000      1.00000000      1.00000000      1.00000000      1.00000000      1.00000000
      1.00000000      1.00000000      1.00000000      1.00000000      1.00000000      1.00000000      1.00000000      1.00000000      1.00000000      1.00000000      1.00000000      1.00000000      1.00000000      1.00000000      1.00000000      1.00000000      1.00000000      1.00000000      1.00000000      1.00000000
      1.00000000      1.00000000      1.00000000      1.00000000      1.00000000      1.00000000      1.00000000      1.00000000      1.00000000      1.00000000      1.00000000      1.00000000      1.00000000      1.00000000      1.00000000      1.00000000      1.00000000      1.00000000      1.00000000      1.00000000
      1.00000000      1.00000000      1.00000000      1.00000000      1.00000000      1.00000000      1.00000000      1.00000000      1.00000000      1.00000000      1.00000000      1.00000000      1.00000000      1.00000000      1.00000000      1.00000000      1.00000000      1.00000000      1.00000000      1.00000000
      1.00000000      1.00000000      1.00000000      1.00000000      1.00000000      1.00000000      1.00000000      1.00000000      1.00000000      1.00000000      1.00000000      1.00000000      1.00000000      1.00000000      1.00000000      1.00000000      1.00000000      1.00000000</v>
    <i name="NUPDOWN">     -1.00000000</i>
    <i type="logical" name="LSORBIT"> F  </i>
    <v name="SAXIS">      0.00000000      0.00000000      1.00000000</v>
    <i type="logical" name="LSPIRAL"> F  </i>
    <v name="QSPIRAL">      0.00000000      0.00000000      0.00000000</v>
    <i type="logical" name="LZEROZ"> F  </i>
   </separator>
   <separator name="electronic exchange-correlation" >
    <i type="logical" name="LASPH"> F  </i>
    <i type="logical" name="LMETAGGA"> F  </i>
   </separator>
   <separator name="electronic convergence" >
    <i type="int" name="NELM">   200</i>
    <i type="int" name="NELMDL">     0</i>
    <i type="int" name="NELMIN">     2</i>
    <i name="ENINI">    500.00000000</i>
    <separator name="electronic convergence detail" >
     <i type="logical" name="LDIAG"> T  </i>
     <i type="logical" name="LSUBROT"> F  </i>
     <i name="WEIMIN">      0.00000000</i>
     <i name="EBREAK">      0.00000001</i>
     <i name="DEPER">      0.30000000</i>
     <i type="int" name="NRMM">     4</i>
     <i name="TIME">      0.40000000</i>
    </separator>
   </separator>
   <separator name="electronic mixer" >
    <i name="AMIX">      0.40000000</i>
    <i name="BMIX">      1.00000000</i>
    <i name="AMIN">      0.10000000</i>
    <i name="AMIX_MAG">      1.60000000</i>
    <i name="BMIX_MAG">      1.00000000</i>
    <separator name="electronic mixer details" >
     <i type="int" name="IMIX">     4</i>
     <i type="logical" name="MIXFIRST"> F  </i>
     <i type="int" name="MAXMIX">   -45</i>
     <i name="WC">    100.00000000</i>
     <i type="int" name="INIMIX">     1</i>
     <i type="int" name="MIXPRE">     1</i>
     <i type="int" name="MREMOVE">     5</i>
    </separator>
   </separator>
   <separator name="electronic dipolcorrection" >
    <i type="logical" name="LDIPOL"> F  </i>
    <i type="logical" name="LMONO"> F  </i>
    <i type="int" name="IDIPOL">     0</i>
    <i name="EPSILON">      1.00000000</i>
    <v name="DIPOL">   -100.00000000   -100.00000000   -100.00000000</v>
    <i name="EFIELD">      0.00000000</i>
   </separator>
  </separator>
  <separator name="grids" >
   <i type="int" name="NGX">   180</i>
   <i type="int" name="NGY">   180</i>
   <i type="int" name="NGZ">   150</i>
   <i type="int" name="NGXF">   270</i>
   <i type="int" name="NGYF">   270</i>
   <i type="int" name="NGZF">   224</i>
   <i type="logical" name="ADDGRID"> F  </i>
  </separator>
  <separator name="ionic" >
   <i type="int" name="NSW">     0</i>
   <i type="int" name="IBRION">    -1</i>
   <i type="int" name="MDALGO">     0</i>
   <i type="int" name="ISIF">     2</i>
   <i name="PSTRESS">      0.00000000</i>
   <i name="EDIFFG">     -0.01000000</i>
   <i type="int" name="NFREE">     0</i>
   <i name="POTIM">      0.30000000</i>
   <i name="SMASS">     -3.00000000</i>
   <i name="SCALEE">      1.00000000</i>
  </separator>
  <separator name="ionic md" >
   <i name="TEBEG">      0.00010000</i>
   <i name="TEEND">      0.00010000</i>
   <i type="int" name="NBLOCK">     1</i>
   <i type="int" name="KBLOCK">     1</i>
   <i type="int" name="NPACO">   256</i>
   <i name="APACO">     16.00000000</i>
  </separator>
  <separator name="symmetry" >
   <i type="int" name="ISYM">     2</i>
   <i name="SYMPREC">      0.00001000</i>
  </separator>
  <separator name="dos" >
   <i type="int" name="LORBIT">     0</i>
   <v name="RWIGS">     -1.00000000     -1.00000000     -1.00000000     -1.00000000</v>
   <i type="int" name="NEDOS">   301</i>
   <i name="EMIN">     10.00000000</i>
   <i name="EMAX">    -10.00000000</i>
   <i name="EFERMI">      0.00000000</i>
  </separator>
  <separator name="writing" >
   <i type="int" name="NWRITE">     0</i>
   <i type="logical" name="LWAVE"> F  </i>
   <i type="logical" name="LDOWNSAMPLE"> F  </i>
   <i type="logical" name="LCHARG"> F  </i>
   <i type="logical" name="LPARD"> F  </i>
   <i type="logical" name="LVTOT"> F  </i>
   <i type="logical" name="LVHAR"> F  </i>
   <i type="logical" name="LELF"> F  </i>
   <i type="logical" name="LOPTICS"> F  </i>
   <v name="STM">      0.00000000      0.00000000      0.00000000      0.00000000      0.00000000      0.00000000      0.00000000</v>
  </separator>
  <separator name="performance" >
   <i type="int" name="NPAR">    16</i>
   <i type="int" name="NSIM">     4</i>
   <i type="int" name="NBLK">    -1</i>
   <i type="logical" name="LPLANE"> T  </i>
   <i type="logical" name="LSCALAPACK"> T  </i>
   <i type="logical" name="LSCAAWARE"> F  </i>
   <i type="logical" name="LSCALU"> F  </i>
   <i type="logical" name="LASYNC"> F  </i>
   <i type="logical" name="LORBITALREAL"> F  </i>
  </separator>
  <separator name="miscellaneous" >
   <i type="int" name="IDIOT">     3</i>
   <i type="int" name="ISPECIAL">     0</i>
   <i type="logical" name="LMUSIC"> F  </i>
   <v name="POMASS">      1.00000000     16.00000000     14.00100000     12.01100000</v>
   <v name="DARWINR">      0.00000000      0.00000000      0.00000000      0.00000000</v>
   <v name="DARWINV">      1.00000000      1.00000000      1.00000000      1.00000000</v>
   <i type="logical" name="LCORR"> T  </i>
  </separator>
  <i type="logical" name="GGA_COMPAT"> T  </i>
  <i type="logical" name="LBERRY"> F  </i>
  <i type="int" name="ICORELEVEL">     0</i>
  <i type="logical" name="LDAU"> F  </i>
  <i type="int" name="I_CONSTRAINED_M">     0</i>
  <separator name="electronic exchange-correlation" >
   <i type="string" name="GGA">PE</i>
   <i type="int" name="VOSKOWN">     0</i>
   <i type="logical" name="LHFCALC"> F  </i>
   <i type="string" name="PRECFOCK"></i>
   <i type="logical" name="LSYMGRAD"> F  </i>
   <i type="logical" name="LHFONE"> F  </i>
   <i type="logical" name="LRHFCALC"> F  </i>
   <i type="logical" name="LTHOMAS"> F  </i>
   <i type="logical" name="LMODELHF"> F  </i>
   <i name="ENCUT4O">     -1.00000000</i>
   <i type="int" name="EXXOEP">     0</i>
   <i type="int" name="FOURORBIT">     0</i>
   <i name="AEXX">      0.00000000</i>
   <i name="HFALPHA">      0.00000000</i>
   <i name="MCALPHA">      0.00000000</i>
   <i name="ALDAX">      1.00000000</i>
   <i name="AGGAX">      1.00000000</i>
   <i name="ALDAC">      1.00000000</i>
   <i name="AGGAC">      1.00000000</i>
   <i type="int" name="NKREDX">     1</i>
   <i type="int" name="NKREDY">     1</i>
   <i type="int" name="NKREDZ">     1</i>
   <i type="logical" name="SHIFTRED"> F  </i>
   <i type="logical" name="ODDONLY"> F  </i>
   <i type="logical" name="EVENONLY"> F  </i>
   <i type="int" name="LMAXFOCK">     0</i>
   <i type="int" name="NMAXFOCKAE">     0</i>
   <i type="logical" name="LFOCKAEDFT"> F  </i>
   <i name="HFSCREEN">      0.00000000</i>
   <i name="HFSCREENC">      0.00000000</i>
   <i type="int" name="NBANDSGWLOW">     0</i>
  </separator>
  <separator name="vdW DFT" >
   <i type="logical" name="LUSE_VDW"> F  </i>
   <i name="Zab_VDW">     -0.84910000</i>
   <i name="PARAM1">      0.12340000</i>
   <i name="PARAM2">      1.00000000</i>
   <i name="PARAM3">      0.00000000</i>
  </separator>
  <separator name="model GW" >
   <i type="int" name="MODEL_GW">     0</i>
   <i name="MODEL_EPS0">     63.62903926</i>
   <i name="MODEL_ALPHA">      1.00000000</i>
  </separator>
  <separator name="linear response parameters" >
   <i type="logical" name="LEPSILON"> F  </i>
   <i type="logical" name="LRPA"> F  </i>
   <i type="logical" name="LNABLA"> F  </i>
   <i type="logical" name="LVEL"> F  </i>
   <i type="int" name="KINTER">     0</i>
   <i name="CSHIFT">      0.10000000</i>
   <i name="OMEGAMAX">     -1.00000000</i>
   <i name="DEG_THRESHOLD">      0.00200000</i>
   <i name="RTIME">     -0.10000000</i>
   <i name="WPLASMAI">      0.00000000</i>
   <v name="DFIELD">      0.00000000      0.00000000      0.00000000</v>
   <v name="WPLASMA">      0.00000000      0.00000000      0.00000000      0.00000000      0.00000000      0.00000000      0.00000000      0.00000000      0.00000000</v>
  </separator>
  <separator name="orbital magnetization" >
   <i type="logical" name="NUCIND"> F  </i>
   <v name="MAGPOS">      0.00000000      0.00000000      0.00000000</v>
   <i type="logical" name="LNICSALL"> T  </i>
   <i type="logical" name="ORBITALMAG"> F  </i>
   <i type="logical" name="LMAGBLOCH"> F  </i>
   <i type="logical" name="LCHIMAG"> F  </i>
   <i type="logical" name="LGAUGE"> T  </i>
   <i type="int" name="MAGATOM">     0</i>
   <v name="MAGDIPOL">      0.00000000      0.00000000      0.00000000</v>
   <v name="AVECCONST">      0.00000000      0.00000000      0.00000000</v>
  </separator>
  <separator name="response functions" >
   <i type="logical" name="LADDER"> F  </i>
   <i type="logical" name="LRPAFORCE"> F  </i>
   <i type="logical" name="LFXC"> F  </i>
   <i type="logical" name="LHARTREE"> T  </i>
   <i type="int" name="IBSE">     0</i>
   <v type="int" name="KPOINT">    -1     0     0     0</v>
   <i type="logical" name="LTCTE"> F  </i>
   <i type="logical" name="LTETE"> F  </i>
   <i type="logical" name="LTRIPLET"> F  </i>
   <i type="logical" name="LFXCEPS"> F  </i>
   <i type="logical" name="LFXHEG"> F  </i>
   <i type="int" name="NATURALO">     2</i>
   <i type="logical" name="L2ORDER"> F  </i>
   <i type="logical" name="LMP2LT"> F  </i>
   <i type="logical" name="LUSEW"> F  </i>
   <i name="ENCUTGW">     -2.00000000</i>
   <i name="ENCUTGWSOFT">     -2.00000000</i>
   <i name="ENCUTLF">     -1.00000000</i>
   <i type="int" name="LMAXMP2">    -1</i>
   <i name="SCISSOR">      0.00000000</i>
   <i type="int" name="NOMEGA">     0</i>
   <i type="int" name="NOMEGAR">     0</i>
   <i type="int" name="NBANDSGW">    -1</i>
   <i type="int" name="NBANDSO">    -1</i>
   <i type="int" name="NBANDSV">    -1</i>
   <i type="int" name="NELM">   200</i>
   <i type="int" name="NELMHF">     1</i>
   <i type="int" name="DIM">     3</i>
   <i type="int" name="ANTIRES">     0</i>
   <i name="OMEGAMAX">    -30.00000000</i>
   <i name="OMEGAMIN">    -30.00000000</i>
   <i name="OMEGATL">   -200.00000000</i>
   <i type="int" name="OMEGAGRID">   140</i>
   <i name="CSHIFT">     -0.10000000</i>
   <i type="logical" name="SELFENERGY"> F  </i>
   <i type="logical" name="LSPECTRAL"> F  </i>
   <i type="logical" name="LSPECTRALGW"> F  </i>
   <i type="logical" name="LSINGLES"> F  </i>
   <i type="logical" name="LFERMIGW"> F  </i>
   <i type="logical" name="ODDONLYGW"> F  </i>
   <i type="logical" name="EVENONLYGW"> F  </i>
   <i type="int" name="NKREDLFX">     1</i>
   <i type="int" name="NKREDLFY">     1</i>
   <i type="int" name="NKREDLFZ">     1</i>
   <i type="int" name="MAXMEM">  2800</i>
   <i type="int" name="TELESCOPE">     0</i>
   <i type="int" name="TAUPAR">     1</i>
   <i type="int" name="OMEGAPAR">    -1</i>
   <i name="LAMBDA">      1.00000000</i>
  </separator>
  <separator name="External order field" >
   <i name="OFIELD_KAPPA">      0.00000000</i>
   <v name="OFIELD_K">      0.00000000      0.00000000      0.00000000</v>
   <i name="OFIELD_Q6_NEAR">      0.00000000</i>
   <i name="OFIELD_Q6_FAR">      0.00000000</i>
   <i name="OFIELD_A">      0.00000000</i>
  </separator>
  <separator name="solvation model" >
   <i type="logical" name="LSOL"> F  </i>
  </separator>
 </parameters>
 <atominfo>
  <atoms>      98 </atoms>
  <types>       4 </types>
  <array name="atoms" >
   <dimension dim="1">ion</dimension>
   <field type="string">element</field>
   <field type="int">atomtype</field>
   <set>
    <rc><c>H </c><c>   1</c></rc>
    <rc><c>H </c><c>   1</c></rc>
    <rc><c>H </c><c>   1</c></rc>
    <rc><c>H </c><c>   1</c></rc>
    <rc><c>H </c><c>   1</c></rc>
    <rc><c>H </c><c>   1</c></rc>
    <rc><c>H </c><c>   1</c></rc>
    <rc><c>H </c><c>   1</c></rc>
    <rc><c>H </c><c>   1</c></rc>
    <rc><c>H </c><c>   1</c></rc>
    <rc><c>H </c><c>   1</c></rc>
    <rc><c>H </c><c>   1</c></rc>
    <rc><c>H </c><c>   1</c></rc>
    <rc><c>H </c><c>   1</c></rc>
    <rc><c>H </c><c>   1</c></rc>
    <rc><c>H </c><c>   1</c></rc>
    <rc><c>H </c><c>   1</c></rc>
    <rc><c>H </c><c>   1</c></rc>
    <rc><c>H </c><c>   1</c></rc>
    <rc><c>H </c><c>   1</c></rc>
    <rc><c>H </c><c>   1</c></rc>
    <rc><c>H </c><c>   1</c></rc>
    <rc><c>H </c><c>   1</c></rc>
    <rc><c>H </c><c>   1</c></rc>
    <rc><c>H </c><c>   1</c></rc>
    <rc><c>H </c><c>   1</c></rc>
    <rc><c>H </c><c>   1</c></rc>
    <rc><c>H </c><c>   1</c></rc>
    <rc><c>H </c><c>   1</c></rc>
    <rc><c>H </c><c>   1</c></rc>
    <rc><c>H </c><c>   1</c></rc>
    <rc><c>H </c><c>   1</c></rc>
    <rc><c>H </c><c>   1</c></rc>
    <rc><c>H </c><c>   1</c></rc>
    <rc><c>H </c><c>   1</c></rc>
    <rc><c>H </c><c>   1</c></rc>
    <rc><c>O </c><c>   2</c></rc>
    <rc><c>O </c><c>   2</c></rc>
    <rc><c>O </c><c>   2</c></rc>
    <rc><c>N </c><c>   3</c></rc>
    <rc><c>N </c><c>   3</c></rc>
    <rc><c>N </c><c>   3</c></rc>
    <rc><c>N </c><c>   3</c></rc>
    <rc><c>N </c><c>   3</c></rc>
    <rc><c>N </c><c>   3</c></rc>
    <rc><c>N </c><c>   3</c></rc>
    <rc><c>N </c><c>   3</c></rc>
    <rc><c>C </c><c>   4</c></rc>
    <rc><c>C </c><c>   4</c></rc>
    <rc><c>C </c><c>   4</c></rc>
    <rc><c>C </c><c>   4</c></rc>
    <rc><c>C </c><c>   4</c></rc>
    <rc><c>C </c><c>   4</c></rc>
    <rc><c>C </c><c>   4</c></rc>
    <rc><c>C </c><c>   4</c></rc>
    <rc><c>C </c><c>   4</c></rc>
    <rc><c>C </c><c>   4</c></rc>
    <rc><c>C </c><c>   4</c></rc>
    <rc><c>C </c><c>   4</c></rc>
    <rc><c>C </c><c>   4</c></rc>
    <rc><c>C </c><c>   4</c></rc>
    <rc><c>C </c><c>   4</c></rc>
    <rc><c>C </c><c>   4</c></rc>
    <rc><c>C </c><c>   4</c></rc>
    <rc><c>C </c><c>   4</c></rc>
    <rc><c>C </c><c>   4</c></rc>
    <rc><c>C </c><c>   4</c></rc>
    <rc><c>C </c><c>   4</c></rc>
    <rc><c>C </c><c>   4</c></rc>
    <rc><c>C </c><c>   4</c></rc>
    <rc><c>C </c><c>   4</c></rc>
    <rc><c>C </c><c>   4</c></rc>
    <rc><c>C </c><c>   4</c></rc>
    <rc><c>C </c><c>   4</c></rc>
    <rc><c>C </c><c>   4</c></rc>
    <rc><c>C </c><c>   4</c></rc>
    <rc><c>C </c><c>   4</c></rc>
    <rc><c>C </c><c>   4</c></rc>
    <rc><c>C </c><c>   4</c></rc>
    <rc><c>C </c><c>   4</c></rc>
    <rc><c>C </c><c>   4</c></rc>
    <rc><c>C </c><c>   4</c></rc>
    <rc><c>C </c><c>   4</c></rc>
    <rc><c>C </c><c>   4</c></rc>
    <rc><c>C </c><c>   4</c></rc>
    <rc><c>C </c><c>   4</c></rc>
    <rc><c>C </c><c>   4</c></rc>
    <rc><c>C </c><c>   4</c></rc>
    <rc><c>C </c><c>   4</c></rc>
    <rc><c>C </c><c>   4</c></rc>
    <rc><c>C </c><c>   4</c></rc>
    <rc><c>C </c><c>   4</c></rc>
    <rc><c>C </c><c>   4</c></rc>
    <rc><c>C </c><c>   4</c></rc>
    <rc><c>C </c><c>   4</c></rc>
    <rc><c>C </c><c>   4</c></rc>
    <rc><c>C </c><c>   4</c></rc>
    <rc><c>C </c><c>   4</c></rc>
   </set>
  </array>
  <array name="atomtypes" >
   <dimension dim="1">type</dimension>
   <field type="int">atomspertype</field>
   <field type="string">element</field>
   <field>mass</field>
   <field>valence</field>
   <field type="string">pseudopotential</field>
   <set>
    <rc><c>  36</c><c>H </c><c>      1.00000000</c><c>      1.00000000</c><c>  PAW_PBE H 15Jun2001                   </c></rc>
    <rc><c>   3</c><c>O </c><c>     16.00000000</c><c>      6.00000000</c><c>  PAW_PBE O 08Apr2002                   </c></rc>
    <rc><c>   8</c><c>N </c><c>     14.00100000</c><c>      5.00000000</c><c>  PAW_PBE N 08Apr2002                   </c></rc>
    <rc><c>  51</c><c>C </c><c>     12.01100000</c><c>      4.00000000</c><c>  PAW_PBE C 08Apr2002                   </c></rc>
   </set>
  </array>
 </atominfo>
 <structure name="initialpos" >
  <crystal>
   <varray name="basis" >
    <v>      24.52140669       0.00780037       0.00000000 </v>
    <v>     -12.25393987      21.18726610       0.00000000 </v>
    <v>       0.00000000       0.00000000      20.00000000 </v>
   </varray>
   <i name="volume">  10392.74307933 </i>
   <varray name="rec_basis" >
    <v>       0.04077319       0.02358172       0.00000000 </v>
    <v>      -0.00001501       0.04718948       0.00000000 </v>
    <v>       0.00000000       0.00000000       0.05000000 </v>
   </varray>
  </crystal>
  <varray name="positions" >
   <v>       0.33362917       0.87363898       0.40574243 </v>
   <v>       0.27297786       0.75766893       0.40790347 </v>
   <v>       0.40848641       0.75547278       0.54362070 </v>
   <v>       0.47021823       0.87253148       0.54019949 </v>
   <v>       0.40791408       0.71160284       0.40786524 </v>
   <v>       0.46379362       0.65167908       0.40589745 </v>
   <v>       0.22872142       0.71412769       0.54335600 </v>
   <v>       0.11187417       0.65850308       0.54054075 </v>
   <v>       0.11060533       0.52002163       0.40674553 </v>
   <v>       0.22634884       0.57552618       0.40846032 </v>
   <v>       0.27049130       0.57517920       0.54342053 </v>
   <v>       0.32650788       0.51425670       0.54034564 </v>
   <v>       0.61336294       0.15893687       0.55378200 </v>
   <v>       0.66663870       0.27521962       0.55839929 </v>
   <v>       0.53575626       0.27362460       0.41351445 </v>
   <v>       0.48321797       0.15657607       0.40744589 </v>
   <v>       0.53208201       0.31820929       0.55821560 </v>
   <v>       0.46971045       0.37200612       0.55397390 </v>
   <v>       0.71147164       0.32335179       0.41412137 </v>
   <v>       0.82832936       0.38740886       0.40890781 </v>
   <v>       0.82581351       0.51535844       0.55522167 </v>
   <v>       0.70964589       0.45286867       0.55891753 </v>
   <v>       0.66194212       0.44970871       0.41384860 </v>
   <v>       0.59799775       0.50270206       0.40809666 </v>
   <v>       0.38478205       0.94868452       0.33426386 </v>
   <v>       0.46196838       0.00437680       0.30804426 </v>
   <v>       0.42296095       0.87884136       0.34890759 </v>
   <v>       0.03576011       0.49655861       0.33541149 </v>
   <v>       0.97943716       0.51728988       0.30941481 </v>
   <v>       0.10450436       0.60501429       0.34994903 </v>
   <v>       0.48742975       0.60034549       0.33442683 </v>
   <v>       0.46649700       0.52309683       0.30847183 </v>
   <v>       0.37928362       0.56076806       0.34980753 </v>
   <v>       0.53033543       0.06229378       0.57866074 </v>
   <v>       0.92281286       0.52812132       0.58056415 </v>
   <v>       0.45786322       0.45658629       0.57969854 </v>
   <v>       0.44956051       0.91680382       0.32290285 </v>
   <v>       0.06657597       0.59311027       0.32376320 </v>
   <v>       0.39095818       0.53457752       0.32353612 </v>
   <v>       0.30240117       0.68151916       0.47633842 </v>
   <v>       0.63621779       0.34884550       0.48838565 </v>
   <v>       0.48599731       0.05256606       0.41737600 </v>
   <v>       0.93190255       0.49384521       0.41898011 </v>
   <v>       0.49100078       0.49949873       0.41787300 </v>
   <v>       0.47518721       0.97895278       0.52790561 </v>
   <v>       0.00573845       0.55618636       0.52925390 </v>
   <v>       0.42897011       0.51098273       0.52860653 </v>
   <v>       0.33697973       0.74830304       0.47513065 </v>
   <v>       0.23578097       0.64933568       0.47527485 </v>
   <v>       0.33465331       0.64709547       0.47501659 </v>
   <v>       0.38943191       0.66796467       0.43641905 </v>
   <v>       0.42045934       0.63341088       0.43491350 </v>
   <v>       0.39774129       0.57676365       0.47102327 </v>
   <v>       0.34353451       0.55701906       0.51053151 </v>
   <v>       0.31246637       0.59133970       0.51257503 </v>
   <v>       0.31655400       0.78259738       0.43646514 </v>
   <v>       0.35154476       0.84825286       0.43482051 </v>
   <v>       0.40819324       0.88186442       0.47082970 </v>
   <v>       0.42745041       0.84702137       0.51047865 </v>
   <v>       0.39267691       0.78158417       0.51271052 </v>
   <v>       0.20261812       0.67195914       0.51274427 </v>
   <v>       0.13728531       0.64111470       0.51083929 </v>
   <v>       0.10245918       0.58669512       0.47157496 </v>
   <v>       0.13596739       0.56352704       0.43557859 </v>
   <v>       0.20150619       0.59431689       0.43696242 </v>
   <v>       0.60465982       0.28215941       0.48644744 </v>
   <v>       0.70280880       0.38387141       0.48693508 </v>
   <v>       0.60129043       0.38051663       0.48655822 </v>
   <v>       0.54692308       0.35919100       0.52597785 </v>
   <v>       0.51213680       0.38983769       0.52347938 </v>
   <v>       0.53005056       0.44207624       0.48126339 </v>
   <v>       0.58439517       0.46292061       0.44180888 </v>
   <v>       0.61988371       0.43309545       0.44466817 </v>
   <v>       0.62590686       0.24904202       0.52595616 </v>
   <v>       0.59554813       0.18354926       0.52323702 </v>
   <v>       0.54361737       0.14919015       0.48075356 </v>
   <v>       0.52278483       0.18276493       0.44131360 </v>
   <v>       0.55235833       0.24814908       0.44435548 </v>
   <v>       0.73683807       0.36537395       0.44513010 </v>
   <v>       0.80212195       0.40089980       0.44260179 </v>
   <v>       0.83560440       0.45520866       0.48228057 </v>
   <v>       0.80125786       0.47299034       0.52449606 </v>
   <v>       0.73582131       0.43814575       0.52667978 </v>
   <v>       0.44654091       0.95153623       0.46977808 </v>
   <v>       0.51177945       0.07986465       0.47635299 </v>
   <v>       0.45533084       0.98959554       0.41264384 </v>
   <v>       0.43525313       0.96442095       0.34195949 </v>
   <v>       0.03289380       0.55516210       0.47092099 </v>
   <v>       0.90483028       0.49239477       0.47804947 </v>
   <v>       0.99470939       0.52596828       0.41391025 </v>
   <v>       0.01955603       0.53098147       0.34311426 </v>
   <v>       0.42956787       0.53895406       0.47022536 </v>
   <v>       0.49283780       0.47410653       0.47699448 </v>
   <v>       0.45861587       0.52999589       0.41306453 </v>
   <v>       0.45310089       0.54968395       0.34234512 </v>
   <v>       0.50782848       0.04161987       0.53085982 </v>
   <v>       0.94319791       0.52635823       0.53255353 </v>
   <v>       0.45912313       0.47854034       0.53169438 </v>
  </varray>
 </structure>
 <calculation>
  <scstep>
   <time name="dav">  348.73  352.96</time>
   <time name="total">  348.91  353.14</time>
   <energy>
    <i name="alphaZ">     39.48227590 </i>
    <i name="ewald">  35069.47560657 </i>
    <i name="hartreedc"> -44397.77672416 </i>
    <i name="XCdc">   1046.91362079 </i>
    <i name="pawpsdc">  27052.68917807 </i>
    <i name="pawaedc"> -27105.82648870 </i>
    <i name="eentropy">     -0.00000000 </i>
    <i name="bandstr">  -3747.10484084 </i>
    <i name="atom">  11367.42908036 </i>
    <i name="e_fr_energy">   -674.71829201 </i>
    <i name="e_wo_entrp">   -674.71829201 </i>
    <i name="e_0_energy">   -674.71829201 </i>
   </energy>
  </scstep>
  <scstep>
   <time name="dav">  397.29  402.07</time>
   <time name="total">  397.29  402.07</time>
   <energy>
    <i name="e_fr_energy">   -675.28397634 </i>
    <i name="e_wo_entrp">   -675.28397634 </i>
    <i name="e_0_energy">   -675.28397634 </i>
   </energy>
  </scstep>
  <scstep>
   <time name="dav">  429.76  435.04</time>
   <time name="total">  429.77  435.04</time>
   <energy>
    <i name="e_fr_energy">   -675.29980136 </i>
    <i name="e_wo_entrp">   -675.29980136 </i>
    <i name="e_0_energy">   -675.29980136 </i>
   </energy>
  </scstep>
  <scstep>
   <time name="dav">  393.67  398.02</time>
   <time name="total">  393.67  398.02</time>
   <energy>
    <i name="e_fr_energy">   -675.30010931 </i>
    <i name="e_wo_entrp">   -675.30010931 </i>
    <i name="e_0_energy">   -675.30010931 </i>
   </energy>
  </scstep>
  <scstep>
   <time name="dav">  363.07  367.10</time>
   <time name="total">  363.07  367.10</time>
   <energy>
    <i name="e_fr_energy">   -675.30012110 </i>
    <i name="e_wo_entrp">   -675.30012110 </i>
    <i name="e_0_energy">   -675.30012110 </i>
   </energy>
  </scstep>
  <scstep>
   <time name="dav">  301.11  304.49</time>
   <time name="total">  301.11  304.50</time>
   <energy>
    <i name="alphaZ">     39.48227590 </i>
    <i name="ewald">  35069.47560657 </i>
    <i name="hartreedc"> -44397.77672416 </i>
    <i name="XCdc">   1046.91362079 </i>
    <i name="pawpsdc">  27052.68917807 </i>
    <i name="pawaedc"> -27105.82648870 </i>
    <i name="eentropy">     -0.00000000 </i>
    <i name="bandstr">  -3747.68667045 </i>
    <i name="atom">  11367.42908036 </i>
    <i name="e_fr_energy">   -675.30012162 </i>
    <i name="e_wo_entrp">   -675.30012162 </i>
    <i name="e_0_energy">   -675.30012162 </i>
   </energy>
  </scstep>
  <structure>
   <crystal>
    <varray name="basis" >
     <v>      24.52140669       0.00780037       0.00000000 </v>
     <v>     -12.25393987      21.18726610       0.00000000 </v>
     <v>       0.00000000       0.00000000      20.00000000 </v>
    </varray>
    <i name="volume">  10392.74307933 </i>
    <varray name="rec_basis" >
     <v>       0.04077319       0.02358172       0.00000000 </v>
     <v>      -0.00001501       0.04718948       0.00000000 </v>
     <v>       0.00000000       0.00000000       0.05000000 </v>
    </varray>
   </crystal>
   <varray name="positions" >
    <v>       0.33362917       0.87363898       0.40574243 </v>
    <v>       0.27297786       0.75766893       0.40790347 </v>
    <v>       0.40848641       0.75547278       0.54362070 </v>
    <v>       0.47021823       0.87253148       0.54019949 </v>
    <v>       0.40791408       0.71160284       0.40786524 </v>
    <v>       0.46379362       0.65167908       0.40589745 </v>
    <v>       0.22872142       0.71412769       0.54335600 </v>
    <v>       0.11187417       0.65850308       0.54054075 </v>
    <v>       0.11060533       0.52002163       0.40674553 </v>
    <v>       0.22634884       0.57552618       0.40846032 </v>
    <v>       0.27049130       0.57517920       0.54342053 </v>
    <v>       0.32650788       0.51425670       0.54034564 </v>
    <v>       0.61336294       0.15893687       0.55378200 </v>
    <v>       0.66663870       0.27521962       0.55839929 </v>
    <v>       0.53575626       0.27362460       0.41351445 </v>
    <v>       0.48321797       0.15657607       0.40744589 </v>
    <v>       0.53208201       0.31820929       0.55821560 </v>
    <v>       0.46971045       0.37200612       0.55397390 </v>
    <v>       0.71147164       0.32335179       0.41412137 </v>
    <v>       0.82832936       0.38740886       0.40890781 </v>
    <v>       0.82581351       0.51535844       0.55522167 </v>
    <v>       0.70964589       0.45286867       0.55891753 </v>
    <v>       0.66194212       0.44970871       0.41384860 </v>
    <v>       0.59799775       0.50270206       0.40809666 </v>
    <v>       0.38478205       0.94868452       0.33426386 </v>
    <v>       0.46196838       0.00437680       0.30804426 </v>
    <v>       0.42296095       0.87884136       0.34890759 </v>
    <v>       0.03576011       0.49655861       0.33541149 </v>
    <v>       0.97943716       0.51728988       0.30941481 </v>
    <v>       0.10450436       0.60501429       0.34994903 </v>
    <v>       0.48742975       0.60034549       0.33442683 </v>
    <v>       0.46649700       0.52309683       0.30847183 </v>
    <v>       0.37928362       0.56076806       0.34980753 </v>
    <v>       0.53033543       0.06229378       0.57866074 </v>
    <v>       0.92281286       0.52812132       0.58056415 </v>
    <v>       0.45786322       0.45658629       0.57969854 </v>
    <v>       0.44956051       0.91680382       0.32290285 </v>
    <v>       0.06657597       0.59311027       0.32376320 </v>
    <v>       0.39095818       0.53457752       0.32353612 </v>
    <v>       0.30240117       0.68151916       0.47633842 </v>
    <v>       0.63621779       0.34884550       0.48838565 </v>
    <v>       0.48599731       0.05256606       0.41737600 </v>
    <v>       0.93190255       0.49384521       0.41898011 </v>
    <v>       0.49100078       0.49949873       0.41787300 </v>
    <v>       0.47518721       0.97895278       0.52790561 </v>
    <v>       0.00573845       0.55618636       0.52925390 </v>
    <v>       0.42897011       0.51098273       0.52860653 </v>
    <v>       0.33697973       0.74830304       0.47513065 </v>
    <v>       0.23578097       0.64933568       0.47527485 </v>
    <v>       0.33465331       0.64709547       0.47501659 </v>
    <v>       0.38943191       0.66796467       0.43641905 </v>
    <v>       0.42045934       0.63341088       0.43491350 </v>
    <v>       0.39774129       0.57676365       0.47102327 </v>
    <v>       0.34353451       0.55701906       0.51053151 </v>
    <v>       0.31246637       0.59133970       0.51257503 </v>
    <v>       0.31655400       0.78259738       0.43646514 </v>
    <v>       0.35154476       0.84825286       0.43482051 </v>
    <v>       0.40819324       0.88186442       0.47082970 </v>
    <v>       0.42745041       0.84702137       0.51047865 </v>
    <v>       0.39267691       0.78158417       0.51271052 </v>
    <v>       0.20261812       0.67195914       0.51274427 </v>
    <v>       0.13728531       0.64111470       0.51083929 </v>
    <v>       0.10245918       0.58669512       0.47157496 </v>
    <v>       0.13596739       0.56352704       0.43557859 </v>
    <v>       0.20150619       0.59431689       0.43696242 </v>
    <v>       0.60465982       0.28215941       0.48644744 </v>
    <v>       0.70280880       0.38387141       0.48693508 </v>
    <v>       0.60129043       0.38051663       0.48655822 </v>
    <v>       0.54692308       0.35919100       0.52597785 </v>
    <v>       0.51213680       0.38983769       0.52347938 </v>
    <v>       0.53005056       0.44207624       0.48126339 </v>
    <v>       0.58439517       0.46292061       0.44180888 </v>
    <v>       0.61988371       0.43309545       0.44466817 </v>
    <v>       0.62590686       0.24904202       0.52595616 </v>
    <v>       0.59554813       0.18354926       0.52323702 </v>
    <v>       0.54361737       0.14919015       0.48075356 </v>
    <v>       0.52278483       0.18276493       0.44131360 </v>
    <v>       0.55235833       0.24814908       0.44435548 </v>
    <v>       0.73683807       0.36537395       0.44513010 </v>
    <v>       0.80212195       0.40089980       0.44260179 </v>
    <v>       0.83560440       0.45520866       0.48228057 </v>
    <v>       0.80125786       0.47299034       0.52449606 </v>
    <v>       0.73582131       0.43814575       0.52667978 </v>
    <v>       0.44654091       0.95153623       0.46977808 </v>
    <v>       0.51177945       0.07986465       0.47635299 </v>
    <v>       0.45533084       0.98959554       0.41264384 </v>
    <v>       0.43525313       0.96442095       0.34195949 </v>
    <v>       0.03289380       0.55516210       0.47092099 </v>
    <v>       0.90483028       0.49239477       0.47804947 </v>
    <v>       0.99470939       0.52596828       0.41391025 </v>
    <v>       0.01955603       0.53098147       0.34311426 </v>
    <v>       0.42956787       0.53895406       0.47022536 </v>
    <v>       0.49283780       0.47410653       0.47699448 </v>
    <v>       0.45861587       0.52999589       0.41306453 </v>
    <v>       0.45310089       0.54968395       0.34234512 </v>
    <v>       0.50782848       0.04161987       0.53085982 </v>
    <v>       0.94319791       0.52635823       0.53255353 </v>
    <v>       0.45912313       0.47854034       0.53169438 </v>
   </varray>
  </structure>
  <varray name="forces" >
   <v>      -0.00339266      -0.00115884      -0.00001496 </v>
   <v>      -0.00159012      -0.00003118      -0.00035523 </v>
   <v>       0.00248427       0.00095958      -0.00192301 </v>
   <v>       0.00009287      -0.00170005       0.00069126 </v>
   <v>      -0.00267255       0.00017763       0.00007531 </v>
   <v>       0.00031158       0.00225360      -0.00013872 </v>
   <v>      -0.00210493       0.00306057       0.00039700 </v>
   <v>      -0.00023622       0.00018818       0.00055135 </v>
   <v>       0.00068000       0.00214907       0.00119401 </v>
   <v>       0.00006805       0.00118469       0.00128229 </v>
   <v>      -0.00046476      -0.00060900      -0.00215432 </v>
   <v>      -0.00039617       0.00361294      -0.00257399 </v>
   <v>       0.00013800       0.00226092      -0.00115809 </v>
   <v>       0.00418008       0.00032556       0.00237685 </v>
   <v>      -0.00315732      -0.00071699      -0.00096565 </v>
   <v>      -0.00046528       0.00124659      -0.00022695 </v>
   <v>       0.00081632      -0.00104550       0.00029691 </v>
   <v>       0.00063597      -0.00106944      -0.00223569 </v>
   <v>      -0.00023498       0.00219741       0.00137009 </v>
   <v>      -0.00042088       0.00010441      -0.00116213 </v>
   <v>      -0.00158282      -0.00363989      -0.00282040 </v>
   <v>       0.00102479       0.00155946      -0.00157849 </v>
   <v>       0.00019293       0.00150889       0.00196285 </v>
   <v>      -0.00044550      -0.00344838       0.00068461 </v>
   <v>      -0.00123615      -0.00066951       0.00016398 </v>
   <v>       0.00079175      -0.00097250       0.00364411 </v>
   <v>       0.00159341       0.00046655       0.00283660 </v>
   <v>      -0.00058671      -0.00351623       0.00022480 </v>
   <v>       0.00288078      -0.00004357       0.00082537 </v>
   <v>      -0.00100441       0.00060311      -0.00368582 </v>
   <v>       0.00178012       0.00197493      -0.00076574 </v>
   <v>       0.00329622       0.00261044       0.00099659 </v>
   <v>      -0.00290206       0.00184702       0.00002861 </v>
   <v>      -0.00075307       0.00038976       0.00078095 </v>
   <v>      -0.00184073      -0.00192465       0.00241357 </v>
   <v>      -0.00110895      -0.00103809       0.00632587 </v>
   <v>       0.00209468       0.00025773       0.00154097 </v>
   <v>       0.00459808      -0.00062193       0.00304852 </v>
   <v>      -0.00039490       0.00167853       0.00029381 </v>
   <v>      -0.01574629       0.00339602      -0.00501781 </v>
   <v>       0.00495069       0.00426593      -0.00289173 </v>
   <v>      -0.00035119      -0.01323843      -0.00508968 </v>
   <v>       0.02173592       0.00648522      -0.01689230 </v>
   <v>      -0.00925626       0.00953786      -0.00887335 </v>
   <v>       0.01242781       0.01570059       0.00563448 </v>
   <v>      -0.02028161       0.00121847       0.01375116 </v>
   <v>       0.00377685      -0.00957078       0.00806139 </v>
   <v>      -0.00042094      -0.00461943       0.00131660 </v>
   <v>       0.01870878       0.00530004       0.00494861 </v>
   <v>      -0.00410808       0.00232070       0.00125464 </v>
   <v>       0.00755990       0.00046460      -0.00052824 </v>
   <v>      -0.00699810       0.00366839      -0.00476229 </v>
   <v>       0.01534877      -0.01073685      -0.00150133 </v>
   <v>      -0.00602920       0.00194745       0.00616974 </v>
   <v>       0.00377513      -0.01210102       0.00632198 </v>
   <v>       0.00014638       0.00316503       0.00392320 </v>
   <v>      -0.00376196      -0.00810760      -0.00404487 </v>
   <v>       0.00496038       0.02199480       0.00043313 </v>
   <v>      -0.00365966      -0.00681497       0.00662009 </v>
   <v>       0.00263293       0.00394070       0.00165110 </v>
   <v>      -0.01723215      -0.00082259       0.00210721 </v>
   <v>       0.01175749       0.00837228       0.00897099 </v>
   <v>      -0.03039057      -0.01659335      -0.00248968 </v>
   <v>       0.01274624       0.00390735      -0.00864014 </v>
   <v>      -0.00818296      -0.01094373      -0.00401664 </v>
   <v>       0.00616325       0.00730925       0.00669308 </v>
   <v>      -0.01322009      -0.00789986       0.00327816 </v>
   <v>      -0.00006828      -0.00260089      -0.00328272 </v>
   <v>      -0.01075448      -0.00294966       0.00077861 </v>
   <v>       0.00526879      -0.00250648       0.00717922 </v>
   <v>      -0.01631437       0.00626314       0.00011714 </v>
   <v>       0.00947155       0.00040952      -0.00452863 </v>
   <v>      -0.00611130       0.00601638      -0.00261919 </v>
   <v>       0.00493388      -0.00488288      -0.00277234 </v>
   <v>       0.00389016       0.00314046       0.00627784 </v>
   <v>       0.00323170      -0.02425072       0.00108499 </v>
   <v>      -0.00067931       0.00808959      -0.00616990 </v>
   <v>      -0.00920396      -0.01091413      -0.00767221 </v>
   <v>       0.01649444       0.00165705      -0.00709965 </v>
   <v>      -0.01005620      -0.00844676      -0.01068030 </v>
   <v>       0.02488167       0.01513127       0.00163869 </v>
   <v>      -0.01397423      -0.00364059       0.00852308 </v>
   <v>       0.00546766       0.01652289      -0.00004604 </v>
   <v>      -0.00237878      -0.02007843      -0.00165907 </v>
   <v>       0.00493119       0.01923395       0.00629843 </v>
   <v>      -0.00452417       0.01386655      -0.00909062 </v>
   <v>       0.00035206      -0.00106369       0.00174197 </v>
   <v>       0.03590001       0.01382644      -0.00266939 </v>
   <v>      -0.02868037      -0.01900096       0.00536454 </v>
   <v>      -0.01473529      -0.01936236       0.00091289 </v>
   <v>      -0.00116857       0.00182392      -0.00216534 </v>
   <v>      -0.01853243       0.01099915      -0.00199789 </v>
   <v>       0.01743284      -0.01265418      -0.00135540 </v>
   <v>       0.01414472      -0.00060726      -0.00154295 </v>
   <v>      -0.00270042      -0.00442806       0.00010080 </v>
   <v>       0.00588748      -0.00678545       0.00340800 </v>
   <v>       0.01361394       0.01432678      -0.00339439 </v>
   <v>      -0.01374008       0.00090754      -0.00331475 </v>
  </varray>
  <varray name="stress" >
   <v>      -0.03593976      -0.00870955      -0.00107440 </v>
   <v>      -0.00870955      -0.03822951       0.00478102 </v>
   <v>      -0.00107440       0.00478103      -0.18749610 </v>
  </varray>
  <energy>
   <i name="e_fr_energy">   -677.43567790 </i>
   <i name="e_wo_entrp">   -677.43567790 </i>
   <i name="e_0_energy">     -0.00000000 </i>
  </energy>
  <time name="totalsc"> 2636.72 2668.33</time>
  <eigenvalues>
   <array>
    <dimension dim="1">band</dimension>
    <dimension dim="2">kpoint</dimension>
    <dimension dim="3">spin</dimension>
    <field>eigene</field>
    <field>occ</field>
    <set>
     <set comment="spin 1">
      <set comment="kpoint 1">
       <r>  -25.1618    1.0000 </r>
       <r>  -25.1603    1.0000 </r>
       <r>  -25.1601    1.0000 </r>
       <r>  -24.4382    1.0000 </r>
       <r>  -24.2484    1.0000 </r>
       <r>  -24.1820    1.0000 </r>
       <r>  -24.1803    1.0000 </r>
       <r>  -24.1766    1.0000 </r>
       <r>  -22.3666    1.0000 </r>
       <r>  -22.3645    1.0000 </r>
       <r>  -22.3569    1.0000 </r>
       <r>  -21.4217    1.0000 </r>
       <r>  -21.4205    1.0000 </r>
       <r>  -21.2663    1.0000 </r>
       <r>  -21.2634    1.0000 </r>
       <r>  -21.0133    1.0000 </r>
       <r>  -20.8437    1.0000 </r>
       <r>  -19.8457    1.0000 </r>
       <r>  -19.8435    1.0000 </r>
       <r>  -19.4464    1.0000 </r>
       <r>  -19.1281    1.0000 </r>
       <r>  -19.1264    1.0000 </r>
       <r>  -18.5823    1.0000 </r>
       <r>  -18.5808    1.0000 </r>
       <r>  -18.4964    1.0000 </r>
       <r>  -18.4288    1.0000 </r>
       <r>  -18.4266    1.0000 </r>
       <r>  -18.3432    1.0000 </r>
       <r>  -18.1460    1.0000 </r>
       <r>  -18.1224    1.0000 </r>
       <r>  -18.1213    1.0000 </r>
       <r>  -17.3676    1.0000 </r>
       <r>  -17.1040    1.0000 </r>
       <r>  -17.1024    1.0000 </r>
       <r>  -16.7739    1.0000 </r>
       <r>  -16.4814    1.0000 </r>
       <r>  -16.4795    1.0000 </r>
       <r>  -15.6541    1.0000 </r>
       <r>  -15.5994    1.0000 </r>
       <r>  -15.5987    1.0000 </r>
       <r>  -15.3836    1.0000 </r>
       <r>  -15.3827    1.0000 </r>
       <r>  -15.3084    1.0000 </r>
       <r>  -15.0119    1.0000 </r>
       <r>  -14.8188    1.0000 </r>
       <r>  -14.8178    1.0000 </r>
       <r>  -14.7657    1.0000 </r>
       <r>  -14.7637    1.0000 </r>
       <r>  -14.6203    1.0000 </r>
       <r>  -14.3172    1.0000 </r>
       <r>  -14.3168    1.0000 </r>
       <r>  -14.0598    1.0000 </r>
       <r>  -13.8190    1.0000 </r>
       <r>  -13.3007    1.0000 </r>
       <r>  -13.2995    1.0000 </r>
       <r>  -13.1292    1.0000 </r>
       <r>  -13.1274    1.0000 </r>
       <r>  -12.8042    1.0000 </r>
       <r>  -12.7280    1.0000 </r>
       <r>  -12.6428    1.0000 </r>
       <r>  -12.6399    1.0000 </r>
       <r>  -12.4646    1.0000 </r>
       <r>  -12.4569    1.0000 </r>
       <r>  -12.4555    1.0000 </r>
       <r>  -12.2215    1.0000 </r>
       <r>  -12.2187    1.0000 </r>
       <r>  -12.0240    1.0000 </r>
       <r>  -11.7873    1.0000 </r>
       <r>  -11.7847    1.0000 </r>
       <r>  -11.4765    1.0000 </r>
       <r>  -11.2623    1.0000 </r>
       <r>  -11.1220    1.0000 </r>
       <r>  -11.1209    1.0000 </r>
       <r>  -10.9623    1.0000 </r>
       <r>  -10.9595    1.0000 </r>
       <r>  -10.9425    1.0000 </r>
       <r>  -10.8411    1.0000 </r>
       <r>  -10.8409    1.0000 </r>
       <r>  -10.7469    1.0000 </r>
       <r>  -10.6987    1.0000 </r>
       <r>  -10.6980    1.0000 </r>
       <r>  -10.6342    1.0000 </r>
       <r>  -10.4117    1.0000 </r>
       <r>  -10.4111    1.0000 </r>
       <r>  -10.3209    1.0000 </r>
       <r>  -10.2590    1.0000 </r>
       <r>  -10.2393    1.0000 </r>
       <r>  -10.2381    1.0000 </r>
       <r>  -10.1519    1.0000 </r>
       <r>  -10.1439    1.0000 </r>
       <r>  -10.1424    1.0000 </r>
       <r>  -10.0845    1.0000 </r>
       <r>   -9.9753    1.0000 </r>
       <r>   -9.9732    1.0000 </r>
       <r>   -9.8938    1.0000 </r>
       <r>   -9.8909    1.0000 </r>
       <r>   -9.8371    1.0000 </r>
       <r>   -9.7667    1.0000 </r>
       <r>   -9.7653    1.0000 </r>
       <r>   -9.4878    1.0000 </r>
       <r>   -9.2939    1.0000 </r>
       <r>   -9.2914    1.0000 </r>
       <r>   -9.1739    1.0000 </r>
       <r>   -9.1185    1.0000 </r>
       <r>   -9.0159    1.0000 </r>
       <r>   -9.0144    1.0000 </r>
       <r>   -8.8291    1.0000 </r>
       <r>   -8.7836    1.0000 </r>
       <r>   -8.7825    1.0000 </r>
       <r>   -8.6361    1.0000 </r>
       <r>   -8.6356    1.0000 </r>
       <r>   -8.5067    1.0000 </r>
       <r>   -8.2735    1.0000 </r>
       <r>   -8.2302    1.0000 </r>
       <r>   -8.2288    1.0000 </r>
       <r>   -8.0737    1.0000 </r>
       <r>   -8.0368    1.0000 </r>
       <r>   -8.0334    1.0000 </r>
       <r>   -8.0197    1.0000 </r>
       <r>   -8.0176    1.0000 </r>
       <r>   -8.0120    1.0000 </r>
       <r>   -7.8336    1.0000 </r>
       <r>   -7.8332    1.0000 </r>
       <r>   -7.5299    1.0000 </r>
       <r>   -7.2795    1.0000 </r>
       <r>   -6.9499    1.0000 </r>
       <r>   -6.9485    1.0000 </r>
       <r>   -6.7945    1.0000 </r>
       <r>   -6.7907    1.0000 </r>
       <r>   -6.7083    1.0000 </r>
       <r>   -6.5664    1.0000 </r>
       <r>   -6.4852    1.0000 </r>
       <r>   -6.4813    1.0000 </r>
       <r>   -6.3833    1.0000 </r>
       <r>   -6.3360    1.0000 </r>
       <r>   -6.3339    1.0000 </r>
       <r>   -6.2718    1.0000 </r>
       <r>   -6.1450    1.0000 </r>
       <r>   -6.1428    1.0000 </r>
       <r>   -6.1284    1.0000 </r>
       <r>   -6.0823    1.0000 </r>
       <r>   -6.0799    1.0000 </r>
       <r>   -5.5821    1.0000 </r>
       <r>   -5.5775    1.0000 </r>
       <r>   -5.3184    1.0000 </r>
       <r>   -5.2935    1.0000 </r>
       <r>   -5.2895    1.0000 </r>
       <r>   -4.7660    1.0000 </r>
       <r>   -4.3040    1.0000 </r>
       <r>   -2.4865    0.0000 </r>
       <r>   -2.4815    0.0000 </r>
       <r>   -2.0716    0.0000 </r>
       <r>   -1.8671    0.0000 </r>
       <r>   -1.8654    0.0000 </r>
       <r>   -1.7869    0.0000 </r>
       <r>   -1.6101    0.0000 </r>
       <r>   -1.4407    0.0000 </r>
       <r>   -1.4398    0.0000 </r>
       <r>   -1.4286    0.0000 </r>
       <r>   -1.1126    0.0000 </r>
       <r>   -1.1108    0.0000 </r>
       <r>   -0.8913    0.0000 </r>
       <r>   -0.8867    0.0000 </r>
       <r>   -0.4712    0.0000 </r>
       <r>   -0.4209    0.0000 </r>
       <r>   -0.4167    0.0000 </r>
       <r>   -0.3441    0.0000 </r>
       <r>   -0.1888    0.0000 </r>
       <r>   -0.0139    0.0000 </r>
       <r>   -0.0133    0.0000 </r>
       <r>    0.1044    0.0000 </r>
       <r>    0.1054    0.0000 </r>
       <r>    0.1114    0.0000 </r>
       <r>    0.3158    0.0000 </r>
       <r>    0.3567    0.0000 </r>
       <r>    0.3942    0.0000 </r>
       <r>    0.3964    0.0000 </r>
       <r>    0.4427    0.0000 </r>
       <r>    0.4437    0.0000 </r>
       <r>    0.5256    0.0000 </r>
       <r>    0.6033    0.0000 </r>
       <r>    0.6888    0.0000 </r>
       <r>    0.6922    0.0000 </r>
       <r>    0.6995    0.0000 </r>
       <r>    0.7255    0.0000 </r>
       <r>    0.7260    0.0000 </r>
       <r>    0.8099    0.0000 </r>
       <r>    0.8478    0.0000 </r>
       <r>    0.8482    0.0000 </r>
       <r>    0.9254    0.0000 </r>
       <r>    0.9266    0.0000 </r>
       <r>    0.9277    0.0000 </r>
       <r>    0.9805    0.0000 </r>
       <r>    0.9812    0.0000 </r>
       <r>    0.9870    0.0000 </r>
       <r>    1.0703    0.0000 </r>
       <r>    1.0958    0.0000 </r>
       <r>    1.0976    0.0000 </r>
       <r>    1.1021    0.0000 </r>
       <r>    1.1550    0.0000 </r>
       <r>    1.2053    0.0000 </r>
       <r>    1.2733    0.0000 </r>
       <r>    1.2746    0.0000 </r>
       <r>    1.2771    0.0000 </r>
       <r>    1.3547    0.0000 </r>
       <r>    1.3559    0.0000 </r>
       <r>    1.3939    0.0000 </r>
       <r>    1.3950    0.0000 </r>
      </set>
      <set comment="kpoint 2">
       <r>  -25.1618    1.0000 </r>
       <r>  -25.1603    1.0000 </r>
       <r>  -25.1601    1.0000 </r>
       <r>  -24.4382    1.0000 </r>
       <r>  -24.2484    1.0000 </r>
       <r>  -24.1820    1.0000 </r>
       <r>  -24.1803    1.0000 </r>
       <r>  -24.1766    1.0000 </r>
       <r>  -22.3666    1.0000 </r>
       <r>  -22.3645    1.0000 </r>
       <r>  -22.3569    1.0000 </r>
       <r>  -21.4217    1.0000 </r>
       <r>  -21.4205    1.0000 </r>
       <r>  -21.2663    1.0000 </r>
       <r>  -21.2634    1.0000 </r>
       <r>  -21.0132    1.0000 </r>
       <r>  -20.8438    1.0000 </r>
       <r>  -19.8454    1.0000 </r>
       <r>  -19.8434    1.0000 </r>
       <r>  -19.4478    1.0000 </r>
       <r>  -19.1274    1.0000 </r>
       <r>  -19.1255    1.0000 </r>
       <r>  -18.5825    1.0000 </r>
       <r>  -18.5809    1.0000 </r>
       <r>  -18.4964    1.0000 </r>
       <r>  -18.4291    1.0000 </r>
       <r>  -18.4266    1.0000 </r>
       <r>  -18.3432    1.0000 </r>
       <r>  -18.1601    1.0000 </r>
       <r>  -18.1217    1.0000 </r>
       <r>  -18.1074    1.0000 </r>
       <r>  -17.3681    1.0000 </r>
       <r>  -17.1040    1.0000 </r>
       <r>  -17.1023    1.0000 </r>
       <r>  -16.7756    1.0000 </r>
       <r>  -16.4810    1.0000 </r>
       <r>  -16.4777    1.0000 </r>
       <r>  -15.6574    1.0000 </r>
       <r>  -15.5996    1.0000 </r>
       <r>  -15.5967    1.0000 </r>
       <r>  -15.3843    1.0000 </r>
       <r>  -15.3824    1.0000 </r>
       <r>  -15.3066    1.0000 </r>
       <r>  -15.0121    1.0000 </r>
       <r>  -14.8209    1.0000 </r>
       <r>  -14.8199    1.0000 </r>
       <r>  -14.7634    1.0000 </r>
       <r>  -14.7619    1.0000 </r>
       <r>  -14.6202    1.0000 </r>
       <r>  -14.3177    1.0000 </r>
       <r>  -14.3170    1.0000 </r>
       <r>  -14.0595    1.0000 </r>
       <r>  -13.8191    1.0000 </r>
       <r>  -13.3007    1.0000 </r>
       <r>  -13.2995    1.0000 </r>
       <r>  -13.1292    1.0000 </r>
       <r>  -13.1273    1.0000 </r>
       <r>  -12.8040    1.0000 </r>
       <r>  -12.7280    1.0000 </r>
       <r>  -12.6431    1.0000 </r>
       <r>  -12.6401    1.0000 </r>
       <r>  -12.4720    1.0000 </r>
       <r>  -12.4558    1.0000 </r>
       <r>  -12.4487    1.0000 </r>
       <r>  -12.2216    1.0000 </r>
       <r>  -12.2188    1.0000 </r>
       <r>  -12.0238    1.0000 </r>
       <r>  -11.7875    1.0000 </r>
       <r>  -11.7850    1.0000 </r>
       <r>  -11.4763    1.0000 </r>
       <r>  -11.2624    1.0000 </r>
       <r>  -11.1220    1.0000 </r>
       <r>  -11.1209    1.0000 </r>
       <r>  -10.9624    1.0000 </r>
       <r>  -10.9596    1.0000 </r>
       <r>  -10.9424    1.0000 </r>
       <r>  -10.8411    1.0000 </r>
       <r>  -10.8410    1.0000 </r>
       <r>  -10.7468    1.0000 </r>
       <r>  -10.6987    1.0000 </r>
       <r>  -10.6979    1.0000 </r>
       <r>  -10.6340    1.0000 </r>
       <r>  -10.4127    1.0000 </r>
       <r>  -10.4112    1.0000 </r>
       <r>  -10.3199    1.0000 </r>
       <r>  -10.2589    1.0000 </r>
       <r>  -10.2393    1.0000 </r>
       <r>  -10.2381    1.0000 </r>
       <r>  -10.1519    1.0000 </r>
       <r>  -10.1438    1.0000 </r>
       <r>  -10.1423    1.0000 </r>
       <r>  -10.0845    1.0000 </r>
       <r>   -9.9754    1.0000 </r>
       <r>   -9.9733    1.0000 </r>
       <r>   -9.8941    1.0000 </r>
       <r>   -9.8910    1.0000 </r>
       <r>   -9.8370    1.0000 </r>
       <r>   -9.7668    1.0000 </r>
       <r>   -9.7654    1.0000 </r>
       <r>   -9.4875    1.0000 </r>
       <r>   -9.2940    1.0000 </r>
       <r>   -9.2917    1.0000 </r>
       <r>   -9.1734    1.0000 </r>
       <r>   -9.1183    1.0000 </r>
       <r>   -9.0159    1.0000 </r>
       <r>   -9.0145    1.0000 </r>
       <r>   -8.8305    1.0000 </r>
       <r>   -8.7831    1.0000 </r>
       <r>   -8.7818    1.0000 </r>
       <r>   -8.6361    1.0000 </r>
       <r>   -8.6356    1.0000 </r>
       <r>   -8.5067    1.0000 </r>
       <r>   -8.2735    1.0000 </r>
       <r>   -8.2301    1.0000 </r>
       <r>   -8.2288    1.0000 </r>
       <r>   -8.0736    1.0000 </r>
       <r>   -8.0369    1.0000 </r>
       <r>   -8.0334    1.0000 </r>
       <r>   -8.0197    1.0000 </r>
       <r>   -8.0176    1.0000 </r>
       <r>   -8.0120    1.0000 </r>
       <r>   -7.8341    1.0000 </r>
       <r>   -7.8333    1.0000 </r>
       <r>   -7.5292    1.0000 </r>
       <r>   -7.2798    1.0000 </r>
       <r>   -6.9498    1.0000 </r>
       <r>   -6.9485    1.0000 </r>
       <r>   -6.7945    1.0000 </r>
       <r>   -6.7909    1.0000 </r>
       <r>   -6.7082    1.0000 </r>
       <r>   -6.5667    1.0000 </r>
       <r>   -6.4854    1.0000 </r>
       <r>   -6.4819    1.0000 </r>
       <r>   -6.3832    1.0000 </r>
       <r>   -6.3365    1.0000 </r>
       <r>   -6.3341    1.0000 </r>
       <r>   -6.2699    1.0000 </r>
       <r>   -6.1450    1.0000 </r>
       <r>   -6.1428    1.0000 </r>
       <r>   -6.1284    1.0000 </r>
       <r>   -6.0822    1.0000 </r>
       <r>   -6.0797    1.0000 </r>
       <r>   -5.5828    1.0000 </r>
       <r>   -5.5778    1.0000 </r>
       <r>   -5.3184    1.0000 </r>
       <r>   -5.2935    1.0000 </r>
       <r>   -5.2895    1.0000 </r>
       <r>   -4.7652    1.0000 </r>
       <r>   -4.3045    1.0000 </r>
       <r>   -2.4863    0.0000 </r>
       <r>   -2.4811    0.0000 </r>
       <r>   -2.0722    0.0000 </r>
       <r>   -1.8671    0.0000 </r>
       <r>   -1.8654    0.0000 </r>
       <r>   -1.7875    0.0000 </r>
       <r>   -1.6109    0.0000 </r>
       <r>   -1.4414    0.0000 </r>
       <r>   -1.4403    0.0000 </r>
       <r>   -1.4253    0.0000 </r>
       <r>   -1.1126    0.0000 </r>
       <r>   -1.1107    0.0000 </r>
       <r>   -0.8913    0.0000 </r>
       <r>   -0.8867    0.0000 </r>
       <r>   -0.4810    0.0000 </r>
       <r>   -0.4193    0.0000 </r>
       <r>   -0.4098    0.0000 </r>
       <r>   -0.3430    0.0000 </r>
       <r>   -0.1890    0.0000 </r>
       <r>   -0.0138    0.0000 </r>
       <r>   -0.0131    0.0000 </r>
       <r>    0.1046    0.0000 </r>
       <r>    0.1051    0.0000 </r>
       <r>    0.1118    0.0000 </r>
       <r>    0.3157    0.0000 </r>
       <r>    0.3559    0.0000 </r>
       <r>    0.3941    0.0000 </r>
       <r>    0.3965    0.0000 </r>
       <r>    0.4428    0.0000 </r>
       <r>    0.4443    0.0000 </r>
       <r>    0.5260    0.0000 </r>
       <r>    0.6034    0.0000 </r>
       <r>    0.6842    0.0000 </r>
       <r>    0.6881    0.0000 </r>
       <r>    0.7025    0.0000 </r>
       <r>    0.7265    0.0000 </r>
       <r>    0.7291    0.0000 </r>
       <r>    0.8095    0.0000 </r>
       <r>    0.8478    0.0000 </r>
       <r>    0.8487    0.0000 </r>
       <r>    0.9182    0.0000 </r>
       <r>    0.9270    0.0000 </r>
       <r>    0.9345    0.0000 </r>
       <r>    0.9809    0.0000 </r>
       <r>    0.9818    0.0000 </r>
       <r>    0.9873    0.0000 </r>
       <r>    1.0692    0.0000 </r>
       <r>    1.0930    0.0000 </r>
       <r>    1.0979    0.0000 </r>
       <r>    1.1064    0.0000 </r>
       <r>    1.1564    0.0000 </r>
       <r>    1.2037    0.0000 </r>
       <r>    1.2739    0.0000 </r>
       <r>    1.2743    0.0000 </r>
       <r>    1.2766    0.0000 </r>
       <r>    1.3547    0.0000 </r>
       <r>    1.3551    0.0000 </r>
       <r>    1.3953    0.0000 </r>
       <r>    1.3963    0.0000 </r>
      </set>
      <set comment="kpoint 3">
       <r>  -25.1618    1.0000 </r>
       <r>  -25.1603    1.0000 </r>
       <r>  -25.1601    1.0000 </r>
       <r>  -24.4382    1.0000 </r>
       <r>  -24.2484    1.0000 </r>
       <r>  -24.1820    1.0000 </r>
       <r>  -24.1803    1.0000 </r>
       <r>  -24.1766    1.0000 </r>
       <r>  -22.3666    1.0000 </r>
       <r>  -22.3645    1.0000 </r>
       <r>  -22.3570    1.0000 </r>
       <r>  -21.4217    1.0000 </r>
       <r>  -21.4205    1.0000 </r>
       <r>  -21.2663    1.0000 </r>
       <r>  -21.2634    1.0000 </r>
       <r>  -21.0130    1.0000 </r>
       <r>  -20.8441    1.0000 </r>
       <r>  -19.8446    1.0000 </r>
       <r>  -19.8429    1.0000 </r>
       <r>  -19.4518    1.0000 </r>
       <r>  -19.1271    1.0000 </r>
       <r>  -19.1211    1.0000 </r>
       <r>  -18.5831    1.0000 </r>
       <r>  -18.5810    1.0000 </r>
       <r>  -18.4964    1.0000 </r>
       <r>  -18.4299    1.0000 </r>
       <r>  -18.4264    1.0000 </r>
       <r>  -18.3432    1.0000 </r>
       <r>  -18.1813    1.0000 </r>
       <r>  -18.1218    1.0000 </r>
       <r>  -18.0848    1.0000 </r>
       <r>  -17.3696    1.0000 </r>
       <r>  -17.1039    1.0000 </r>
       <r>  -17.1023    1.0000 </r>
       <r>  -16.7804    1.0000 </r>
       <r>  -16.4809    1.0000 </r>
       <r>  -16.4712    1.0000 </r>
       <r>  -15.6662    1.0000 </r>
       <r>  -15.6003    1.0000 </r>
       <r>  -15.5916    1.0000 </r>
       <r>  -15.3868    1.0000 </r>
       <r>  -15.3808    1.0000 </r>
       <r>  -15.3017    1.0000 </r>
       <r>  -15.0127    1.0000 </r>
       <r>  -14.8269    1.0000 </r>
       <r>  -14.8250    1.0000 </r>
       <r>  -14.7575    1.0000 </r>
       <r>  -14.7567    1.0000 </r>
       <r>  -14.6196    1.0000 </r>
       <r>  -14.3195    1.0000 </r>
       <r>  -14.3175    1.0000 </r>
       <r>  -14.0586    1.0000 </r>
       <r>  -13.8192    1.0000 </r>
       <r>  -13.3008    1.0000 </r>
       <r>  -13.2996    1.0000 </r>
       <r>  -13.1291    1.0000 </r>
       <r>  -13.1272    1.0000 </r>
       <r>  -12.8035    1.0000 </r>
       <r>  -12.7279    1.0000 </r>
       <r>  -12.6441    1.0000 </r>
       <r>  -12.6407    1.0000 </r>
       <r>  -12.4822    1.0000 </r>
       <r>  -12.4547    1.0000 </r>
       <r>  -12.4379    1.0000 </r>
       <r>  -12.2217    1.0000 </r>
       <r>  -12.2190    1.0000 </r>
       <r>  -12.0233    1.0000 </r>
       <r>  -11.7881    1.0000 </r>
       <r>  -11.7855    1.0000 </r>
       <r>  -11.4758    1.0000 </r>
       <r>  -11.2627    1.0000 </r>
       <r>  -11.1221    1.0000 </r>
       <r>  -11.1211    1.0000 </r>
       <r>  -10.9627    1.0000 </r>
       <r>  -10.9596    1.0000 </r>
       <r>  -10.9420    1.0000 </r>
       <r>  -10.8413    1.0000 </r>
       <r>  -10.8411    1.0000 </r>
       <r>  -10.7464    1.0000 </r>
       <r>  -10.6987    1.0000 </r>
       <r>  -10.6976    1.0000 </r>
       <r>  -10.6334    1.0000 </r>
       <r>  -10.4157    1.0000 </r>
       <r>  -10.4113    1.0000 </r>
       <r>  -10.3171    1.0000 </r>
       <r>  -10.2588    1.0000 </r>
       <r>  -10.2393    1.0000 </r>
       <r>  -10.2381    1.0000 </r>
       <r>  -10.1517    1.0000 </r>
       <r>  -10.1435    1.0000 </r>
       <r>  -10.1422    1.0000 </r>
       <r>  -10.0844    1.0000 </r>
       <r>   -9.9756    1.0000 </r>
       <r>   -9.9736    1.0000 </r>
       <r>   -9.8949    1.0000 </r>
       <r>   -9.8911    1.0000 </r>
       <r>   -9.8369    1.0000 </r>
       <r>   -9.7673    1.0000 </r>
       <r>   -9.7655    1.0000 </r>
       <r>   -9.4868    1.0000 </r>
       <r>   -9.2942    1.0000 </r>
       <r>   -9.2926    1.0000 </r>
       <r>   -9.1720    1.0000 </r>
       <r>   -9.1176    1.0000 </r>
       <r>   -9.0160    1.0000 </r>
       <r>   -9.0148    1.0000 </r>
       <r>   -8.8344    1.0000 </r>
       <r>   -8.7830    1.0000 </r>
       <r>   -8.7785    1.0000 </r>
       <r>   -8.6364    1.0000 </r>
       <r>   -8.6356    1.0000 </r>
       <r>   -8.5066    1.0000 </r>
       <r>   -8.2736    1.0000 </r>
       <r>   -8.2300    1.0000 </r>
       <r>   -8.2288    1.0000 </r>
       <r>   -8.0734    1.0000 </r>
       <r>   -8.0369    1.0000 </r>
       <r>   -8.0334    1.0000 </r>
       <r>   -8.0197    1.0000 </r>
       <r>   -8.0176    1.0000 </r>
       <r>   -8.0117    1.0000 </r>
       <r>   -7.8356    1.0000 </r>
       <r>   -7.8333    1.0000 </r>
       <r>   -7.5272    1.0000 </r>
       <r>   -7.2804    1.0000 </r>
       <r>   -6.9496    1.0000 </r>
       <r>   -6.9484    1.0000 </r>
       <r>   -6.7945    1.0000 </r>
       <r>   -6.7913    1.0000 </r>
       <r>   -6.7080    1.0000 </r>
       <r>   -6.5677    1.0000 </r>
       <r>   -6.4861    1.0000 </r>
       <r>   -6.4833    1.0000 </r>
       <r>   -6.3829    1.0000 </r>
       <r>   -6.3381    1.0000 </r>
       <r>   -6.3343    1.0000 </r>
       <r>   -6.2645    1.0000 </r>
       <r>   -6.1449    1.0000 </r>
       <r>   -6.1429    1.0000 </r>
       <r>   -6.1284    1.0000 </r>
       <r>   -6.0822    1.0000 </r>
       <r>   -6.0790    1.0000 </r>
       <r>   -5.5852    1.0000 </r>
       <r>   -5.5783    1.0000 </r>
       <r>   -5.3183    1.0000 </r>
       <r>   -5.2936    1.0000 </r>
       <r>   -5.2896    1.0000 </r>
       <r>   -4.7626    1.0000 </r>
       <r>   -4.3061    1.0000 </r>
       <r>   -2.4861    0.0000 </r>
       <r>   -2.4796    0.0000 </r>
       <r>   -2.0740    0.0000 </r>
       <r>   -1.8671    0.0000 </r>
       <r>   -1.8656    0.0000 </r>
       <r>   -1.7891    0.0000 </r>
       <r>   -1.6129    0.0000 </r>
       <r>   -1.4433    0.0000 </r>
       <r>   -1.4403    0.0000 </r>
[...]
       <r>   -23.1753     0.0000    16.0000 </r>
       <r>   -23.0777     0.0000    16.0000 </r>
       <r>   -22.9801     0.0000    16.0000 </r>
       <r>   -22.8826     0.0000    16.0000 </r>
       <r>   -22.7850     0.0000    16.0000 </r>
       <r>   -22.6875     0.0000    16.0000 </r>
       <r>   -22.5899     0.0000    16.0000 </r>
       <r>   -22.4924     0.0000    16.0000 </r>
       <r>   -22.3948     0.0007    16.0001 </r>
       <r>   -22.2973    61.5043    22.0000 </r>
       <r>   -22.1997     0.0000    22.0000 </r>
       <r>   -22.1022     0.0000    22.0000 </r>
       <r>   -22.0046     0.0000    22.0000 </r>
       <r>   -21.9071     0.0000    22.0000 </r>
       <r>   -21.8095     0.0000    22.0000 </r>
       <r>   -21.7120     0.0000    22.0000 </r>
       <r>   -21.6144     0.0000    22.0000 </r>
       <r>   -21.5169     0.0000    22.0000 </r>
       <r>   -21.4193    24.4854    24.3886 </r>
       <r>   -21.3217     0.0000    26.0000 </r>
       <r>   -21.2242    41.0033    30.0000 </r>
       <r>   -21.1266     0.0000    30.0000 </r>
       <r>   -21.0291     0.0457    30.0045 </r>
       <r>   -20.9315    17.0752    32.0000 </r>
       <r>   -20.8340    20.1891    33.9695 </r>
       <r>   -20.7364     0.0000    34.0000 </r>
       <r>   -20.6389     0.0000    34.0000 </r>
       <r>   -20.5413     0.0000    34.0000 </r>
       <r>   -20.4438     0.0000    34.0000 </r>
       <r>   -20.3462     0.0000    34.0000 </r>
       <r>   -20.2487     0.0000    34.0000 </r>
       <r>   -20.1511     0.0000    34.0000 </r>
       <r>   -20.0536     0.0000    34.0000 </r>
       <r>   -19.9560     0.0000    34.0000 </r>
       <r>   -19.8585     0.5238    34.0511 </r>
       <r>   -19.7609     8.1011    37.0239 </r>
       <r>   -19.6633     9.5046    38.3275 </r>
       <r>   -19.5658     7.6182    39.2435 </r>
       <r>   -19.4682     3.8906    39.7129 </r>
       <r>   -19.3707     1.3647    40.0000 </r>
       <r>   -19.2731     0.0000    40.0000 </r>
       <r>   -19.1756     0.0000    40.0000 </r>
       <r>   -19.0780    24.6425    42.4040 </r>
       <r>   -18.9805     2.7530    42.7686 </r>
       <r>   -18.8829     7.0771    43.5238 </r>
       <r>   -18.7854     2.7305    44.0000 </r>
       <r>   -18.6878     4.1790    44.4077 </r>
       <r>   -18.5903    12.5162    46.0878 </r>
       <r>   -18.4927    24.1579    50.3567 </r>
       <r>   -18.3952    28.3516    53.9993 </r>
       <r>   -18.2976    35.2295    57.4367 </r>
       <r>   -18.2000     2.9504    57.7879 </r>
       <r>   -18.1025    23.3236    60.1088 </r>
       <r>   -18.0049     2.3622    60.3640 </r>
       <r>   -17.9074     1.9446    60.6230 </r>
       <r>   -17.8098     2.5804    60.9184 </r>
       <r>   -17.7123    10.5603    61.9971 </r>
       <r>   -17.6147     0.0000    62.0000 </r>
       <r>   -17.5172     0.6230    62.0608 </r>
       <r>   -17.4196     9.1685    63.3279 </r>
       <r>   -17.3221     5.8068    64.0000 </r>
       <r>   -17.2245     0.0000    64.0000 </r>
       <r>   -17.1270     0.0059    64.0006 </r>
       <r>   -17.0294    40.9974    68.0000 </r>
       <r>   -16.9319     2.7844    68.2716 </r>
       <r>   -16.8343     5.3597    69.5230 </r>
       <r>   -16.7368     3.7586    70.0000 </r>
       <r>   -16.6392     0.0000    70.0000 </r>
       <r>   -16.5416     0.0000    70.0000 </r>
       <r>   -16.4441    23.4900    72.2915 </r>
       <r>   -16.3465     2.3654    72.5974 </r>
       <r>   -16.2490     2.3759    72.8652 </r>
       <r>   -16.1514     5.4696    73.4669 </r>
       <r>   -16.0539     5.0093    74.0555 </r>
       <r>   -15.9563     5.7683    74.7294 </r>
       <r>   -15.8588     2.3671    75.1976 </r>
       <r>   -15.7612     2.6005    75.4872 </r>
       <r>   -15.6637     3.0864    75.8678 </r>
       <r>   -15.5661    24.9695    78.4362 </r>
       <r>   -15.4686    12.9799    80.0000 </r>
       <r>   -15.3710    23.6616    82.3083 </r>
       <r>   -15.2735    13.6733    83.8340 </r>
       <r>   -15.1759     7.7633    84.8912 </r>
       <r>   -15.0784    11.9969    86.2038 </r>
       <r>   -14.9808    16.9647    88.6884 </r>
       <r>   -14.8832    12.5426    90.0237 </r>
       <r>   -14.7857    17.1375    91.9388 </r>
       <r>   -14.6881    22.3442    94.2801 </r>
       <r>   -14.5906    18.9620    96.5165 </r>
       <r>   -14.4930     0.0000    98.0000 </r>
       <r>   -14.3955    11.3279    99.1051 </r>
       <r>   -14.2979    28.0043   101.9986 </r>
       <r>   -14.2004     0.0000   102.0000 </r>
       <r>   -14.1028     0.0000   102.0000 </r>
       <r>   -14.0053    20.3169   103.9820 </r>
       <r>   -13.9077     0.0000   104.0000 </r>
       <r>   -13.8102    19.7559   105.9272 </r>
       <r>   -13.7126     0.0000   106.0000 </r>
       <r>   -13.6151     0.0000   106.0000 </r>
       <r>   -13.5175     0.0000   106.0000 </r>
       <r>   -13.4200     0.0000   106.0000 </r>
       <r>   -13.3224     0.1492   106.0146 </r>
       <r>   -13.2248    33.4239   110.0000 </r>
       <r>   -13.1273    14.3326   111.3982 </r>
       <r>   -13.0297     2.0381   114.0000 </r>
       <r>   -12.9322     0.0000   114.0000 </r>
       <r>   -12.8346     0.0000   114.0000 </r>
       <r>   -12.7371    21.7264   116.1195 </r>
       <r>   -12.6395    38.5137   121.7571 </r>
       <r>   -12.5420    14.4270   123.4074 </r>
       <r>   -12.4444     9.6939   124.5124 </r>
       <r>   -12.3469    18.1882   126.7079 </r>
       <r>   -12.2493    14.7936   128.2767 </r>
       <r>   -12.1518    27.9759   132.0000 </r>
       <r>   -12.0542     0.0000   132.0000 </r>
       <r>   -11.9567    20.5010   133.9999 </r>
       <r>   -11.8591     0.3547   134.0346 </r>
       <r>   -11.7615    31.7707   137.9998 </r>
       <r>   -11.6640     0.0000   138.0000 </r>
       <r>   -11.5664     0.0000   138.0000 </r>
       <r>   -11.4689     4.4918   138.4382 </r>
       <r>   -11.3713     9.8842   140.0000 </r>
       <r>   -11.2738    10.5804   141.0321 </r>
       <r>   -11.1762     0.0000   142.0000 </r>
       <r>   -11.0787    41.0033   146.0000 </r>
       <r>   -10.9811     2.2357   146.2181 </r>
       <r>   -10.8836    43.6672   152.0000 </r>
       <r>   -10.7860    41.0032   156.0000 </r>
       <r>   -10.6885    48.3492   160.7166 </r>
       <r>   -10.5909    12.7496   163.2438 </r>
       <r>   -10.4934    11.4042   165.1125 </r>
       <r>   -10.3958    27.5559   167.9882 </r>
       <r>   -10.2983     3.8416   168.3748 </r>
       <r>   -10.2007    76.1969   176.0000 </r>
       <r>   -10.1031    50.6443   180.9405 </r>
       <r>   -10.0056    31.6262   184.4883 </r>
       <r>    -9.9080    43.6107   189.5882 </r>
       <r>    -9.8105    24.5450   194.3944 </r>
       <r>    -9.7129    28.6981   198.0000 </r>
       <r>    -9.6154     0.0000   198.0000 </r>
       <r>    -9.5178     0.0000   198.0000 </r>
       <r>    -9.4203    20.4877   199.9986 </r>
       <r>    -9.3227    13.2846   201.2959 </r>
       <r>    -9.2252    24.9404   204.0000 </r>
       <r>    -9.1276     7.8777   204.7685 </r>
       <r>    -9.0301    39.3219   209.2033 </r>
       <r>    -8.9325    10.0611   212.9815 </r>
       <r>    -8.8350     6.6842   213.8521 </r>
       <r>    -8.7374    26.7311   216.6077 </r>
       <r>    -8.6399    32.4633   219.9671 </r>
       <r>    -8.5423     0.0000   222.0000 </r>
       <r>    -8.4447    20.5017   224.0000 </r>
       <r>    -8.3472     0.0000   224.0000 </r>
       <r>    -8.2496    20.5538   226.0051 </r>
       <r>    -8.1521    40.9486   230.0000 </r>
       <r>    -8.0545    19.3532   231.8880 </r>
       <r>    -7.9570    84.0251   242.0000 </r>
       <r>    -7.8594    15.2054   243.4833 </r>
       <r>    -7.7619    23.5701   246.0000 </r>
       <r>    -7.6643     0.0000   246.0000 </r>
       <r>    -7.5668     0.0000   246.0000 </r>
       <r>    -7.4692     7.2613   246.7084 </r>
       <r>    -7.3717    11.9775   248.0020 </r>
       <r>    -7.2741    18.1634   249.9389 </r>
       <r>    -7.1766     0.0000   250.0000 </r>
       <r>    -7.0790     0.0000   250.0000 </r>
       <r>    -6.9815     0.0000   250.0000 </r>
       <r>    -6.8839    41.0033   254.0000 </r>
       <r>    -6.7863    37.1204   257.6212 </r>
       <r>    -6.6888    14.8561   259.4493 </r>
       <r>    -6.5912    14.9667   261.4600 </r>
       <r>    -6.4937    22.8373   263.9281 </r>
       <r>    -6.3961     0.8864   266.0865 </r>
       <r>    -6.2986    41.0034   272.0000 </r>
       <r>    -6.2010     5.5794   272.5443 </r>
       <r>    -6.1035    75.1888   280.0017 </r>
       <r>    -6.0059    29.2290   282.8537 </r>
       <r>    -5.9084     8.6268   283.7749 </r>
       <r>    -5.8108     2.9746   284.2902 </r>
       <r>    -5.7133     6.9625   285.1459 </r>
       <r>    -5.6157     3.8826   285.5789 </r>
       <r>    -5.5182    23.5759   288.0000 </r>
       <r>    -5.4206     0.0000   288.0000 </r>
       <r>    -5.3230     2.9405   288.2869 </r>
       <r>    -5.2255    41.0020   294.0000 </r>
       <r>    -5.1279     0.0000   294.0000 </r>
       <r>    -5.0304     0.0000   294.0000 </r>
       <r>    -4.9328     0.0000   294.0000 </r>
       <r>    -4.8353     0.0000   294.0000 </r>
       <r>    -4.7377     4.0939   294.3994 </r>
       <r>    -4.6402     4.4930   294.9384 </r>
       <r>    -4.5426     9.9057   296.0000 </r>
       <r>    -4.4451     0.5478   296.0534 </r>
       <r>    -4.3475     9.7699   297.3866 </r>
       <r>    -4.2500     5.1222   298.0000 </r>
       <r>    -4.1524     0.0000   298.0000 </r>
       <r>    -4.0549     0.0000   298.0000 </r>
       <r>    -3.9573     0.0000   298.0000 </r>
       <r>    -3.8598     0.0000   298.0000 </r>
       <r>    -3.7622     0.0000   298.0000 </r>
       <r>    -3.6646     0.0000   298.0000 </r>
       <r>    -3.5671     0.0000   298.0000 </r>
       <r>    -3.4695     0.0000   298.0000 </r>
       <r>    -3.3720     0.0000   298.0000 </r>
       <r>    -3.2744     0.0000   298.0000 </r>
       <r>    -3.1769     0.0000   298.0000 </r>
       <r>    -3.0793     0.0000   298.0000 </r>
       <r>    -2.9818     0.0000   298.0000 </r>
       <r>    -2.8842     0.0000   298.0000 </r>
       <r>    -2.7867     0.0000   298.0000 </r>
       <r>    -2.6891     0.0000   298.0000 </r>
       <r>    -2.5916     0.0000   298.0000 </r>
       <r>    -2.4940     1.9610   298.1913 </r>
       <r>    -2.3965     5.8967   300.8420 </r>
       <r>    -2.2989     9.5164   301.8617 </r>
       <r>    -2.2014     9.9616   302.9721 </r>
       <r>    -2.1038     4.5663   303.5122 </r>
       <r>    -2.0062     3.4156   304.0000 </r>
       <r>    -1.9087     0.0000   304.0000 </r>
       <r>    -1.8111    56.3974   309.5017 </r>
       <r>    -1.7136     2.7293   310.0000 </r>
       <r>    -1.6160    18.3663   311.7917 </r>
       <r>    -1.5185     0.0000   312.0000 </r>
       <r>    -1.4209    42.1116   316.1081 </r>
       <r>    -1.3234     2.9177   316.5180 </r>
       <r>    -1.2258     2.5331   316.8138 </r>
       <r>    -1.1283    11.7399   318.0119 </r>
       <r>    -1.0307    16.5194   321.7140 </r>
       <r>    -0.9332     5.1353   322.3011 </r>
       <r>    -0.8356    47.1935   327.0041 </r>
       <r>    -0.7381     2.0624   327.2679 </r>
       <r>    -0.6405     2.0528   327.5003 </r>
       <r>    -0.5430     1.7109   327.7336 </r>
       <r>    -0.4454     2.3930   328.0003 </r>
       <r>    -0.3478    30.7048   330.9957 </r>
       <r>    -0.2503     6.2420   332.8423 </r>
       <r>    -0.1527     7.6673   334.7480 </r>
       <r>    -0.0552     7.8001   335.5610 </r>
       <r>     0.0424    40.6379   339.9991 </r>
       <r>     0.1399    48.6222   344.7432 </r>
       <r>     0.2375     6.4666   346.0000 </r>
       <r>     0.3350    34.0045   349.3173 </r>
       <r>     0.4326    53.0320   354.9740 </r>
       <r>     0.5301    20.1324   358.2308 </r>
       <r>     0.6277    45.6333   363.2527 </r>
       <r>     0.7252    61.4200   370.1588 </r>
       <r>     0.8228    42.6900   375.4650 </r>
       <r>     0.9203    37.0860   379.3182 </r>
       <r>     1.0179    61.1528   386.4662 </r>
       <r>     1.1155    69.1578   394.3488 </r>
       <r>     1.2130    45.2509   400.1481 </r>
       <r>     1.3106    62.2867   406.6432 </r>
       <r>     1.4081    65.3018   414.0379 </r>
       <r>     1.5057     4.0951   416.0000 </r>
       <r>     1.6032     0.0000   416.0000 </r>
       <r>     1.7008     0.0000   416.0000 </r>
       <r>     1.7983     0.0000   416.0000 </r>
       <r>     1.8959     0.0000   416.0000 </r>
       <r>     1.9934     0.0000   416.0000 </r>
       <r>     2.0910     0.0000   416.0000 </r>
       <r>     2.1885     0.0000   416.0000 </r>
       <r>     2.2861     0.0000   416.0000 </r>
       <r>     2.3836     0.0000   416.0000 </r>
       <r>     2.4812     0.0000   416.0000 </r>
       <r>     2.5787     0.0000   416.0000 </r>
       <r>     2.6763     0.0000   416.0000 </r>
       <r>     2.7739     0.0000   416.0000 </r>
      </set>
     </set>
    </array>
   </total>
  </dos>
 </calculation>
 <structure name="finalpos" >
  <crystal>
   <varray name="basis" >
    <v>      24.52140669       0.00780037       0.00000000 </v>
    <v>     -12.25393987      21.18726610       0.00000000 </v>
    <v>       0.00000000       0.00000000      20.00000000 </v>
   </varray>
   <i name="volume">  10392.74307933 </i>
   <varray name="rec_basis" >
    <v>       0.04077319       0.02358172       0.00000000 </v>
    <v>      -0.00001501       0.04718948       0.00000000 </v>
    <v>       0.00000000       0.00000000       0.05000000 </v>
   </varray>
  </crystal>
  <varray name="positions" >
   <v>       0.33362917       0.87363898       0.40574243 </v>
   <v>       0.27297786       0.75766893       0.40790347 </v>
   <v>       0.40848641       0.75547278       0.54362070 </v>
   <v>       0.47021823       0.87253148       0.54019949 </v>
   <v>       0.40791408       0.71160284       0.40786524 </v>
   <v>       0.46379362       0.65167908       0.40589745 </v>
   <v>       0.22872142       0.71412769       0.54335600 </v>
   <v>       0.11187417       0.65850308       0.54054075 </v>
   <v>       0.11060533       0.52002163       0.40674553 </v>
   <v>       0.22634884       0.57552618       0.40846032 </v>
   <v>       0.27049130       0.57517920       0.54342053 </v>
   <v>       0.32650788       0.51425670       0.54034564 </v>
   <v>       0.61336294       0.15893687       0.55378200 </v>
   <v>       0.66663870       0.27521962       0.55839929 </v>
   <v>       0.53575626       0.27362460       0.41351445 </v>
   <v>       0.48321797       0.15657607       0.40744589 </v>
   <v>       0.53208201       0.31820929       0.55821560 </v>
   <v>       0.46971045       0.37200612       0.55397390 </v>
   <v>       0.71147164       0.32335179       0.41412137 </v>
   <v>       0.82832936       0.38740886       0.40890781 </v>
   <v>       0.82581351       0.51535844       0.55522167 </v>
   <v>       0.70964589       0.45286867       0.55891753 </v>
   <v>       0.66194212       0.44970871       0.41384860 </v>
   <v>       0.59799775       0.50270206       0.40809666 </v>
   <v>       0.38478205       0.94868452       0.33426386 </v>
   <v>       0.46196838       0.00437680       0.30804426 </v>
   <v>       0.42296095       0.87884136       0.34890759 </v>
   <v>       0.03576011       0.49655861       0.33541149 </v>
   <v>       0.97943716       0.51728988       0.30941481 </v>
   <v>       0.10450436       0.60501429       0.34994903 </v>
   <v>       0.48742975       0.60034549       0.33442683 </v>
   <v>       0.46649700       0.52309683       0.30847183 </v>
   <v>       0.37928362       0.56076806       0.34980753 </v>
   <v>       0.53033543       0.06229378       0.57866074 </v>
   <v>       0.92281286       0.52812132       0.58056415 </v>
   <v>       0.45786322       0.45658629       0.57969854 </v>
   <v>       0.44956051       0.91680382       0.32290285 </v>
   <v>       0.06657597       0.59311027       0.32376320 </v>
   <v>       0.39095818       0.53457752       0.32353612 </v>
   <v>       0.30240117       0.68151916       0.47633842 </v>
   <v>       0.63621779       0.34884550       0.48838565 </v>
   <v>       0.48599731       0.05256606       0.41737600 </v>
   <v>       0.93190255       0.49384521       0.41898011 </v>
   <v>       0.49100078       0.49949873       0.41787300 </v>
   <v>       0.47518721       0.97895278       0.52790561 </v>
   <v>       0.00573845       0.55618636       0.52925390 </v>
   <v>       0.42897011       0.51098273       0.52860653 </v>
   <v>       0.33697973       0.74830304       0.47513065 </v>
   <v>       0.23578097       0.64933568       0.47527485 </v>
   <v>       0.33465331       0.64709547       0.47501659 </v>
   <v>       0.38943191       0.66796467       0.43641905 </v>
   <v>       0.42045934       0.63341088       0.43491350 </v>
   <v>       0.39774129       0.57676365       0.47102327 </v>
   <v>       0.34353451       0.55701906       0.51053151 </v>
   <v>       0.31246637       0.59133970       0.51257503 </v>
   <v>       0.31655400       0.78259738       0.43646514 </v>
   <v>       0.35154476       0.84825286       0.43482051 </v>
   <v>       0.40819324       0.88186442       0.47082970 </v>
   <v>       0.42745041       0.84702137       0.51047865 </v>
   <v>       0.39267691       0.78158417       0.51271052 </v>
   <v>       0.20261812       0.67195914       0.51274427 </v>
   <v>       0.13728531       0.64111470       0.51083929 </v>
   <v>       0.10245918       0.58669512       0.47157496 </v>
   <v>       0.13596739       0.56352704       0.43557859 </v>
   <v>       0.20150619       0.59431689       0.43696242 </v>
   <v>       0.60465982       0.28215941       0.48644744 </v>
   <v>       0.70280880       0.38387141       0.48693508 </v>
   <v>       0.60129043       0.38051663       0.48655822 </v>
   <v>       0.54692308       0.35919100       0.52597785 </v>
   <v>       0.51213680       0.38983769       0.52347938 </v>
   <v>       0.53005056       0.44207624       0.48126339 </v>
   <v>       0.58439517       0.46292061       0.44180888 </v>
   <v>       0.61988371       0.43309545       0.44466817 </v>
   <v>       0.62590686       0.24904202       0.52595616 </v>
   <v>       0.59554813       0.18354926       0.52323702 </v>
   <v>       0.54361737       0.14919015       0.48075356 </v>
   <v>       0.52278483       0.18276493       0.44131360 </v>
   <v>       0.55235833       0.24814908       0.44435548 </v>
   <v>       0.73683807       0.36537395       0.44513010 </v>
   <v>       0.80212195       0.40089980       0.44260179 </v>
   <v>       0.83560440       0.45520866       0.48228057 </v>
   <v>       0.80125786       0.47299034       0.52449606 </v>
   <v>       0.73582131       0.43814575       0.52667978 </v>
   <v>       0.44654091       0.95153623       0.46977808 </v>
   <v>       0.51177945       0.07986465       0.47635299 </v>
   <v>       0.45533084       0.98959554       0.41264384 </v>
   <v>       0.43525313       0.96442095       0.34195949 </v>
   <v>       0.03289380       0.55516210       0.47092099 </v>
   <v>       0.90483028       0.49239477       0.47804947 </v>
   <v>       0.99470939       0.52596828       0.41391025 </v>
   <v>       0.01955603       0.53098147       0.34311426 </v>
   <v>       0.42956787       0.53895406       0.47022536 </v>
   <v>       0.49283780       0.47410653       0.47699448 </v>
   <v>       0.45861587       0.52999589       0.41306453 </v>
   <v>       0.45310089       0.54968395       0.34234512 </v>
   <v>       0.50782848       0.04161987       0.53085982 </v>
   <v>       0.94319791       0.52635823       0.53255353 </v>
   <v>       0.45912313       0.47854034       0.53169438 </v>
  </varray>
 </structure>
</modeling>
