<?xml version="1.0" encoding="ISO-8859-1"?>
<modeling>
 <generator>
  <i name="program" type="string">vasp </i>
  <i name="version" type="string">5.4.4.18Apr17-6-g9f103f2a35  </i>
  <i name="subversion" type="string">(build Jun 07 2020 16:50:00) complex            parallel </i>
  <i name="platform" type="string">LinuxIFC </i>
  <i name="date" type="string">2023 02 24 </i>
  <i name="time" type="string">05:17:07 </i>
 </generator>
 <incar>
  <i type="string" name="SYSTEM">Simulation for cell shape cell volume r</i>
  <i type="int" name="ISTART">     1</i>
  <i type="string" name="PREC">high</i>
  <i type="string" name="ALGO">48</i>
  <i type="int" name="ICHARG">    11</i>
  <i type="int" name="NELM">   200</i>
  <i type="int" name="IBRION">    -1</i>
  <i name="EDIFF">      0.00001000</i>
  <i name="EDIFFG">     -0.01000000</i>
  <i type="int" name="NSW">     0</i>
  <i type="int" name="ISIF">     2</i>
  <i name="ENCUT">    500.00000000</i>
  <i name="POTIM">      0.30000000</i>
  <i type="string" name="LREAL">A</i>
  <i type="int" name="ISMEAR">     0</i>
  <i name="SIGMA">      0.01000000</i>
  <i type="int" name="NWRITE">     0</i>
  <i type="logical" name="LWAVE"> F  </i>
  <i type="logical" name="LCHARG"> F  </i>
  <v type="int" name="KPOINT_BSE">    -1     0     0     0</v>
  <i type="int" name="NELM">   200</i>
  <i type="string" name="GGA">PE</i>
 </incar>
 <structure name="primitive_cell" >
  <crystal>
   <varray name="basis" >
    <v>      29.51203517       0.00000000       0.00000000 </v>
    <v>     -14.75601758      25.55817217       0.00000000 </v>
    <v>       0.00000000       0.00000000      20.00000000 </v>
   </varray>
   <i name="volume">  15085.47352130 </i>
   <varray name="rec_basis" >
    <v>       0.03388448       0.01956321       0.00000000 </v>
    <v>       0.00000000       0.03912643       0.00000000 </v>
    <v>       0.00000000       0.00000000       0.05000000 </v>
   </varray>
  </crystal>
  <varray name="positions" >
   <v>       0.02731786      -0.48634107      -0.43731955 </v>
   <v>       0.04863625      -0.47568188      -0.39003980 </v>
   <v>      -0.02730202       0.48634899      -0.43730749 </v>
   <v>       0.05530617      -0.47234691      -0.49763478 </v>
   <v>      -0.04860674       0.47569663      -0.39001820 </v>
   <v>       0.02730145      -0.48634928       0.44206099 </v>
   <v>      -0.05530538       0.47234731      -0.49761105 </v>
   <v>       0.11356643      -0.44321679      -0.49768709 </v>
   <v>      -0.02731644       0.48634178       0.44207300 </v>
   <v>       0.14158681      -0.38827509      -0.49774378 </v>
   <v>       0.14158681      -0.47013810      -0.49774378 </v>
   <v>       0.04861614      -0.47569193       0.39477457 </v>
   <v>       0.12017118       0.48716470      -0.49771408 </v>
   <v>       0.12017118      -0.36699352      -0.49771408 </v>
   <v>      -0.11356516       0.44321742      -0.49765077 </v>
   <v>      -0.04864390       0.47567805       0.39479612 </v>
   <v>      -0.12017085       0.36699359      -0.49767790 </v>
   <v>      -0.12017085      -0.48716444      -0.49767790 </v>
   <v>       0.19606743      -0.44296776      -0.49786003 </v>
   <v>       0.19606743      -0.36096481      -0.49786003 </v>
   <v>      -0.14158565       0.38827587      -0.49771000 </v>
   <v>      -0.14158565       0.47013849      -0.49771000 </v>
   <v>       0.22399118      -0.38800441      -0.49792647 </v>
   <v>       0.21779680      -0.31834308      -0.49790141 </v>
   <v>       0.21779680      -0.46386011      -0.49790141 </v>
   <v>      -0.19606605       0.36096595      -0.49783625 </v>
   <v>      -0.19606605       0.44296801      -0.49783625 </v>
   <v>      -0.22399026       0.38800487      -0.49791001 </v>
   <v>       0.28190240      -0.35904880      -0.49801880 </v>
   <v>      -0.21779602       0.31834435      -0.49788113 </v>
   <v>      -0.21779602       0.46385964      -0.49788113 </v>
   <v>       0.30645390      -0.38709220      -0.49803265 </v>
   <v>       0.30645390      -0.30645390      -0.49803265 </v>
   <v>      -0.28190207       0.35904896      -0.49801544 </v>
   <v>       0.31834308      -0.21779680      -0.49790141 </v>
   <v>       0.31834308      -0.46386011      -0.49790141 </v>
   <v>       0.35904880      -0.35904880      -0.49801880 </v>
   <v>       0.35904880      -0.28190240      -0.49801880 </v>
   <v>      -0.30645387       0.30645387      -0.49803131 </v>
   <v>      -0.30645387       0.38709225      -0.49803131 </v>
   <v>       0.38709220      -0.30645390      -0.49803265 </v>
   <v>       0.36096481      -0.44296776      -0.49786003 </v>
   <v>       0.36096481      -0.19606743      -0.49786003 </v>
   <v>       0.38800441      -0.38800441      -0.49792647 </v>
   <v>       0.38800441      -0.22399118      -0.49792647 </v>
   <v>      -0.31834435       0.21779602      -0.49788113 </v>
   <v>      -0.31834435       0.46385964      -0.49788113 </v>
   <v>      -0.35904896       0.28190207      -0.49801544 </v>
   <v>      -0.35904896       0.35904896      -0.49801544 </v>
   <v>       0.38827509      -0.14158681      -0.49774378 </v>
   <v>       0.38827509      -0.47013810      -0.49774378 </v>
   <v>       0.36699352       0.48716470      -0.49771408 </v>
   <v>       0.36699352      -0.12017118      -0.49771408 </v>
   <v>      -0.36096595       0.19606605      -0.49783625 </v>
   <v>      -0.36096595       0.44296801      -0.49783625 </v>
   <v>      -0.38709225       0.30645387      -0.49803131 </v>
   <v>      -0.38800487       0.22399026      -0.49791001 </v>
   <v>      -0.38800487       0.38800487      -0.49791001 </v>
   <v>       0.44296776      -0.36096481      -0.49786003 </v>
   <v>       0.44296776      -0.19606743      -0.49786003 </v>
   <v>       0.46386011      -0.21779680      -0.49790141 </v>
   <v>       0.46386011      -0.31834308      -0.49790141 </v>
   <v>      -0.36699359       0.12017085      -0.49767790 </v>
   <v>      -0.36699359      -0.48716444      -0.49767790 </v>
   <v>      -0.38827587       0.14158565      -0.49771000 </v>
   <v>      -0.38827587       0.47013849      -0.49771000 </v>
   <v>       0.44321679      -0.44321679      -0.49768709 </v>
   <v>       0.44321679      -0.11356643      -0.49768709 </v>
   <v>       0.47013810      -0.14158681      -0.49774378 </v>
   <v>       0.47013810      -0.38827509      -0.49774378 </v>
   <v>      -0.44296801       0.19606605      -0.49783625 </v>
   <v>      -0.44296801       0.36096595      -0.49783625 </v>
   <v>      -0.46385964       0.21779602      -0.49788113 </v>
   <v>      -0.46385964       0.31834435      -0.49788113 </v>
   <v>       0.47234691      -0.47234691      -0.49763478 </v>
   <v>       0.47234691      -0.05530617      -0.49763478 </v>
   <v>      -0.48716470      -0.36699352      -0.49771408 </v>
   <v>      -0.48716470      -0.12017118      -0.49771408 </v>
   <v>      -0.44321742       0.44321742      -0.49765077 </v>
   <v>      -0.44321742       0.11356516      -0.49765077 </v>
   <v>       0.47568188      -0.47568188      -0.39003980 </v>
   <v>       0.47568188      -0.04863625      -0.39003980 </v>
   <v>      -0.47013849       0.14158565      -0.49771000 </v>
   <v>      -0.47013849       0.38827587      -0.49771000 </v>
   <v>       0.47569193      -0.47569193       0.39477457 </v>
   <v>       0.47569193      -0.04861614       0.39477457 </v>
   <v>       0.48634107      -0.02731786      -0.43731955 </v>
   <v>       0.48634107      -0.48634107      -0.43731955 </v>
   <v>       0.48634928      -0.02730145       0.44206099 </v>
   <v>       0.48634928      -0.48634928       0.44206099 </v>
   <v>      -0.47234731       0.05530538      -0.49761105 </v>
   <v>      -0.47234731       0.47234731      -0.49761105 </v>
   <v>       0.48716444       0.12017085      -0.49767790 </v>
   <v>       0.48716444       0.36699359      -0.49767790 </v>
   <v>      -0.47569663       0.04860674      -0.39001820 </v>
   <v>      -0.47569663       0.47569663      -0.39001820 </v>
   <v>      -0.47567805       0.04864390       0.39479612 </v>
   <v>      -0.47567805       0.47567805       0.39479612 </v>
   <v>      -0.48634899       0.02730202      -0.43730749 </v>
   <v>      -0.48634899       0.48634899      -0.43730749 </v>
   <v>      -0.48634178       0.48634178       0.44207300 </v>
   <v>      -0.48634178       0.02731644       0.44207300 </v>
  </varray>
 </structure>
 <varray name="primitive_index" >
  <v type="int" >        1 </v>
  <v type="int" >       89 </v>
  <v type="int" >       53 </v>
  <v type="int" >       54 </v>
  <v type="int" >       90 </v>
  <v type="int" >        2 </v>
  <v type="int" >       55 </v>
  <v type="int" >       21 </v>
  <v type="int" >       60 </v>
  <v type="int" >       20 </v>
  <v type="int" >       22 </v>
  <v type="int" >       95 </v>
  <v type="int" >       68 </v>
  <v type="int" >       66 </v>
  <v type="int" >       42 </v>
  <v type="int" >       96 </v>
  <v type="int" >       78 </v>
  <v type="int" >       80 </v>
  <v type="int" >       23 </v>
  <v type="int" >       19 </v>
  <v type="int" >       41 </v>
  <v type="int" >       43 </v>
  <v type="int" >       18 </v>
  <v type="int" >       65 </v>
  <v type="int" >       67 </v>
  <v type="int" >       40 </v>
  <v type="int" >       44 </v>
  <v type="int" >       39 </v>
  <v type="int" >        5 </v>
  <v type="int" >       77 </v>
  <v type="int" >       79 </v>
  <v type="int" >       98 </v>
  <v type="int" >       99 </v>
  <v type="int" >       26 </v>
  <v type="int" >       64 </v>
  <v type="int" >       69 </v>
  <v type="int" >        4 </v>
  <v type="int" >        3 </v>
  <v type="int" >      102 </v>
  <v type="int" >      101 </v>
  <v type="int" >       97 </v>
  <v type="int" >       11 </v>
  <v type="int" >       17 </v>
  <v type="int" >        6 </v>
  <v type="int" >       12 </v>
  <v type="int" >       76 </v>
  <v type="int" >       81 </v>
  <v type="int" >       24 </v>
  <v type="int" >       25 </v>
  <v type="int" >       16 </v>
  <v type="int" >       10 </v>
  <v type="int" >       70 </v>
  <v type="int" >       63 </v>
  <v type="int" >       38 </v>
  <v type="int" >       32 </v>
  <v type="int" >      100 </v>
  <v type="int" >       33 </v>
  <v type="int" >       27 </v>
  <v type="int" >        7 </v>
  <v type="int" >       13 </v>
  <v type="int" >       62 </v>
  <v type="int" >       72 </v>
  <v type="int" >       75 </v>
  <v type="int" >       82 </v>
  <v type="int" >       37 </v>
  <v type="int" >       31 </v>
  <v type="int" >        9 </v>
  <v type="int" >       15 </v>
  <v type="int" >       14 </v>
  <v type="int" >        8 </v>
  <v type="int" >       34 </v>
  <v type="int" >       28 </v>
  <v type="int" >       74 </v>
  <v type="int" >       84 </v>
  <v type="int" >       47 </v>
  <v type="int" >       51 </v>
  <v type="int" >       71 </v>
  <v type="int" >       61 </v>
  <v type="int" >       30 </v>
  <v type="int" >       36 </v>
  <v type="int" >       85 </v>
  <v type="int" >       87 </v>
  <v type="int" >       35 </v>
  <v type="int" >       29 </v>
  <v type="int" >       91 </v>
  <v type="int" >       93 </v>
  <v type="int" >       50 </v>
  <v type="int" >       46 </v>
  <v type="int" >       58 </v>
  <v type="int" >       56 </v>
  <v type="int" >       52 </v>
  <v type="int" >       48 </v>
  <v type="int" >       73 </v>
  <v type="int" >       83 </v>
  <v type="int" >       88 </v>
  <v type="int" >       86 </v>
  <v type="int" >       94 </v>
  <v type="int" >       92 </v>
  <v type="int" >       49 </v>
  <v type="int" >       45 </v>
  <v type="int" >       57 </v>
  <v type="int" >       59 </v>
 </varray>
 <kpoints>
  <generation param="listgenerated">
   <i name="divisions" type="int">      20 </i>
   <v>       0.00000000       0.00000000       0.00000000 </v>
   <v>       0.50000000       0.00000000       0.00000000 </v>
   <v>       0.33333333       0.33333333       0.00000000 </v>
   <v>       0.00000000       0.00000000       0.00000000 </v>
  </generation>
  <varray name="kpointlist" >
   <v>       0.00000000       0.00000000       0.00000000 </v>
   <v>       0.02631579       0.00000000       0.00000000 </v>
   <v>       0.05263158       0.00000000       0.00000000 </v>
   <v>       0.07894737       0.00000000       0.00000000 </v>
   <v>       0.10526316       0.00000000       0.00000000 </v>
   <v>       0.13157895       0.00000000       0.00000000 </v>
   <v>       0.15789474       0.00000000       0.00000000 </v>
   <v>       0.18421053       0.00000000       0.00000000 </v>
   <v>       0.21052632       0.00000000       0.00000000 </v>
   <v>       0.23684211       0.00000000       0.00000000 </v>
   <v>       0.26315789       0.00000000       0.00000000 </v>
   <v>       0.28947368       0.00000000       0.00000000 </v>
   <v>       0.31578947       0.00000000       0.00000000 </v>
   <v>       0.34210526       0.00000000       0.00000000 </v>
   <v>       0.36842105       0.00000000       0.00000000 </v>
   <v>       0.39473684       0.00000000       0.00000000 </v>
   <v>       0.42105263       0.00000000       0.00000000 </v>
   <v>       0.44736842       0.00000000       0.00000000 </v>
   <v>       0.47368421       0.00000000       0.00000000 </v>
   <v>       0.50000000       0.00000000       0.00000000 </v>
   <v>       0.50000000       0.00000000       0.00000000 </v>
   <v>       0.49122807       0.01754386       0.00000000 </v>
   <v>       0.48245614       0.03508772       0.00000000 </v>
   <v>       0.47368421       0.05263158       0.00000000 </v>
   <v>       0.46491228       0.07017544       0.00000000 </v>
   <v>       0.45614035       0.08771930       0.00000000 </v>
   <v>       0.44736842       0.10526316       0.00000000 </v>
   <v>       0.43859649       0.12280702       0.00000000 </v>
   <v>       0.42982456       0.14035088       0.00000000 </v>
   <v>       0.42105263       0.15789474       0.00000000 </v>
   <v>       0.41228070       0.17543860       0.00000000 </v>
   <v>       0.40350877       0.19298246       0.00000000 </v>
   <v>       0.39473684       0.21052632       0.00000000 </v>
   <v>       0.38596491       0.22807018       0.00000000 </v>
   <v>       0.37719298       0.24561404       0.00000000 </v>
   <v>       0.36842105       0.26315789       0.00000000 </v>
   <v>       0.35964912       0.28070175       0.00000000 </v>
   <v>       0.35087719       0.29824561       0.00000000 </v>
   <v>       0.34210526       0.31578947       0.00000000 </v>
   <v>       0.33333333       0.33333333       0.00000000 </v>
   <v>       0.33333333       0.33333333       0.00000000 </v>
   <v>       0.31578947       0.31578947       0.00000000 </v>
   <v>       0.29824561       0.29824561       0.00000000 </v>
   <v>       0.28070175       0.28070175       0.00000000 </v>
   <v>       0.26315789       0.26315789       0.00000000 </v>
   <v>       0.24561404       0.24561404       0.00000000 </v>
   <v>       0.22807018       0.22807018       0.00000000 </v>
   <v>       0.21052632       0.21052632       0.00000000 </v>
   <v>       0.19298246       0.19298246       0.00000000 </v>
   <v>       0.17543860       0.17543860       0.00000000 </v>
   <v>       0.15789474       0.15789474       0.00000000 </v>
   <v>       0.14035088       0.14035088       0.00000000 </v>
   <v>       0.12280702       0.12280702       0.00000000 </v>
   <v>       0.10526316       0.10526316       0.00000000 </v>
   <v>       0.08771930       0.08771930       0.00000000 </v>
   <v>       0.07017544       0.07017544       0.00000000 </v>
   <v>       0.05263158       0.05263158       0.00000000 </v>
   <v>       0.03508772       0.03508772       0.00000000 </v>
   <v>       0.01754386       0.01754386       0.00000000 </v>
   <v>       0.00000000       0.00000000       0.00000000 </v>
  </varray>
  <varray name="weights" >
   <v>       0.01666667 </v>
   <v>       0.01666667 </v>
   <v>       0.01666667 </v>
   <v>       0.01666667 </v>
   <v>       0.01666667 </v>
   <v>       0.01666667 </v>
   <v>       0.01666667 </v>
   <v>       0.01666667 </v>
   <v>       0.01666667 </v>
   <v>       0.01666667 </v>
   <v>       0.01666667 </v>
   <v>       0.01666667 </v>
   <v>       0.01666667 </v>
   <v>       0.01666667 </v>
   <v>       0.01666667 </v>
   <v>       0.01666667 </v>
   <v>       0.01666667 </v>
   <v>       0.01666667 </v>
   <v>       0.01666667 </v>
   <v>       0.01666667 </v>
   <v>       0.01666667 </v>
   <v>       0.01666667 </v>
   <v>       0.01666667 </v>
   <v>       0.01666667 </v>
   <v>       0.01666667 </v>
   <v>       0.01666667 </v>
   <v>       0.01666667 </v>
   <v>       0.01666667 </v>
   <v>       0.01666667 </v>
   <v>       0.01666667 </v>
   <v>       0.01666667 </v>
   <v>       0.01666667 </v>
   <v>       0.01666667 </v>
   <v>       0.01666667 </v>
   <v>       0.01666667 </v>
   <v>       0.01666667 </v>
   <v>       0.01666667 </v>
   <v>       0.01666667 </v>
   <v>       0.01666667 </v>
   <v>       0.01666667 </v>
   <v>       0.01666667 </v>
   <v>       0.01666667 </v>
   <v>       0.01666667 </v>
   <v>       0.01666667 </v>
   <v>       0.01666667 </v>
   <v>       0.01666667 </v>
   <v>       0.01666667 </v>
   <v>       0.01666667 </v>
   <v>       0.01666667 </v>
   <v>       0.01666667 </v>
   <v>       0.01666667 </v>
   <v>       0.01666667 </v>
   <v>       0.01666667 </v>
   <v>       0.01666667 </v>
   <v>       0.01666667 </v>
   <v>       0.01666667 </v>
   <v>       0.01666667 </v>
   <v>       0.01666667 </v>
   <v>       0.01666667 </v>
   <v>       0.01666667 </v>
  </varray>
 </kpoints>
 <parameters>
  <separator name="general" >
   <i type="string" name="SYSTEM">Simulation for cell shape cell volume r</i>
   <i type="logical" name="LCOMPAT"> F  </i>
  </separator>
  <separator name="electronic" >
   <i type="string" name="PREC">high</i>
   <i name="ENMAX">    500.00000000</i>
   <i name="ENAUG">    644.87300000</i>
   <i name="EDIFF">      0.00001000</i>
   <i type="int" name="IALGO">    38</i>
   <i type="int" name="IWAVPR">    10</i>
   <i type="int" name="NBANDS">   208</i>
   <i name="NELECT">    306.00000000</i>
   <i type="int" name="TURBO">     0</i>
   <i type="int" name="IRESTART">     0</i>
   <i type="int" name="NREBOOT">     0</i>
   <i type="int" name="NMIN">     0</i>
   <i name="EREF">      0.00000000</i>
   <separator name="electronic smearing" >
    <i type="int" name="ISMEAR">     0</i>
    <i name="SIGMA">      0.01000000</i>
    <i name="KSPACING">      0.50000000</i>
    <i type="logical" name="KGAMMA"> T  </i>
   </separator>
   <separator name="electronic projectors" >
    <i type="logical" name="LREAL"> T  </i>
    <v name="ROPT">     -0.00040000     -0.00040000     -0.00040000</v>
    <i type="int" name="LMAXPAW">  -100</i>
    <i type="int" name="LMAXMIX">     2</i>
    <i type="logical" name="NLSPLINE"> F  </i>
   </separator>
   <separator name="electronic startup" >
    <i type="int" name="ISTART">     1</i>
    <i type="int" name="ICHARG">    11</i>
    <i type="int" name="INIWAV">     1</i>
   </separator>
   <separator name="electronic spin" >
    <i type="int" name="ISPIN">     1</i>
    <i type="logical" name="LNONCOLLINEAR"> F  </i>
    <v name="MAGMOM">      1.00000000      1.00000000      1.00000000      1.00000000      1.00000000      1.00000000      1.00000000      1.00000000      1.00000000      1.00000000      1.00000000      1.00000000      1.00000000      1.00000000      1.00000000      1.00000000      1.00000000      1.00000000      1.00000000      1.00000000
      1.00000000      1.00000000      1.00000000      1.00000000      1.00000000      1.00000000      1.00000000      1.00000000      1.00000000      1.00000000      1.00000000      1.00000000      1.00000000      1.00000000      1.00000000      1.00000000      1.00000000      1.00000000      1.00000000      1.00000000
      1.00000000      1.00000000      1.00000000      1.00000000      1.00000000      1.00000000      1.00000000      1.00000000      1.00000000      1.00000000      1.00000000      1.00000000      1.00000000      1.00000000      1.00000000      1.00000000      1.00000000      1.00000000      1.00000000      1.00000000
      1.00000000      1.00000000      1.00000000      1.00000000      1.00000000      1.00000000      1.00000000      1.00000000      1.00000000      1.00000000      1.00000000      1.00000000      1.00000000      1.00000000      1.00000000      1.00000000      1.00000000      1.00000000      1.00000000      1.00000000
      1.00000000      1.00000000      1.00000000      1.00000000      1.00000000      1.00000000      1.00000000      1.00000000      1.00000000      1.00000000      1.00000000      1.00000000      1.00000000      1.00000000      1.00000000      1.00000000      1.00000000      1.00000000      1.00000000      1.00000000
      1.00000000      1.00000000</v>
    <i name="NUPDOWN">     -1.00000000</i>
    <i type="logical" name="LSORBIT"> F  </i>
    <v name="SAXIS">      0.00000000      0.00000000      1.00000000</v>
    <i type="logical" name="LSPIRAL"> F  </i>
    <v name="QSPIRAL">      0.00000000      0.00000000      0.00000000</v>
    <i type="logical" name="LZEROZ"> F  </i>
   </separator>
   <separator name="electronic exchange-correlation" >
    <i type="logical" name="LASPH"> F  </i>
    <i type="logical" name="LMETAGGA"> F  </i>
   </separator>
   <separator name="electronic convergence" >
    <i type="int" name="NELM">   200</i>
    <i type="int" name="NELMDL">     0</i>
    <i type="int" name="NELMIN">     2</i>
    <i name="ENINI">    500.00000000</i>
    <separator name="electronic convergence detail" >
     <i type="logical" name="LDIAG"> T  </i>
     <i type="logical" name="LSUBROT"> F  </i>
     <i name="WEIMIN">      0.00000000</i>
     <i name="EBREAK">      0.00000001</i>
     <i name="DEPER">      0.30000000</i>
     <i type="int" name="NRMM">     4</i>
     <i name="TIME">      0.40000000</i>
    </separator>
   </separator>
   <separator name="electronic mixer" >
    <i name="AMIX">      0.40000000</i>
    <i name="BMIX">      1.00000000</i>
    <i name="AMIN">      0.10000000</i>
    <i name="AMIX_MAG">      1.60000000</i>
    <i name="BMIX_MAG">      1.00000000</i>
    <separator name="electronic mixer details" >
     <i type="int" name="IMIX">     4</i>
     <i type="logical" name="MIXFIRST"> F  </i>
     <i type="int" name="MAXMIX">   -45</i>
     <i name="WC">    100.00000000</i>
     <i type="int" name="INIMIX">     1</i>
     <i type="int" name="MIXPRE">     1</i>
     <i type="int" name="MREMOVE">     5</i>
    </separator>
   </separator>
   <separator name="electronic dipolcorrection" >
    <i type="logical" name="LDIPOL"> F  </i>
    <i type="logical" name="LMONO"> F  </i>
    <i type="int" name="IDIPOL">     0</i>
    <i name="EPSILON">      1.00000000</i>
    <v name="DIPOL">   -100.00000000   -100.00000000   -100.00000000</v>
    <i name="EFIELD">      0.00000000</i>
   </separator>
  </separator>
  <separator name="grids" >
   <i type="int" name="NGX">   216</i>
   <i type="int" name="NGY">   216</i>
   <i type="int" name="NGZ">   150</i>
   <i type="int" name="NGXF">   336</i>
   <i type="int" name="NGYF">   336</i>
   <i type="int" name="NGZF">   224</i>
   <i type="logical" name="ADDGRID"> F  </i>
  </separator>
  <separator name="ionic" >
   <i type="int" name="NSW">     0</i>
   <i type="int" name="IBRION">    -1</i>
   <i type="int" name="MDALGO">     0</i>
   <i type="int" name="ISIF">     2</i>
   <i name="PSTRESS">      0.00000000</i>
   <i name="EDIFFG">     -0.01000000</i>
   <i type="int" name="NFREE">     0</i>
   <i name="POTIM">      0.30000000</i>
   <i name="SMASS">     -3.00000000</i>
   <i name="SCALEE">      1.00000000</i>
  </separator>
  <separator name="ionic md" >
   <i name="TEBEG">      0.00010000</i>
   <i name="TEEND">      0.00010000</i>
   <i type="int" name="NBLOCK">     1</i>
   <i type="int" name="KBLOCK">     1</i>
   <i type="int" name="NPACO">   256</i>
   <i name="APACO">     16.00000000</i>
  </separator>
  <separator name="symmetry" >
   <i type="int" name="ISYM">     2</i>
   <i name="SYMPREC">      0.00001000</i>
  </separator>
  <separator name="dos" >
   <i type="int" name="LORBIT">     0</i>
   <v name="RWIGS">     -1.00000000     -1.00000000     -1.00000000</v>
   <i type="int" name="NEDOS">   301</i>
   <i name="EMIN">     10.00000000</i>
   <i name="EMAX">    -10.00000000</i>
   <i name="EFERMI">      0.00000000</i>
  </separator>
  <separator name="writing" >
   <i type="int" name="NWRITE">     0</i>
   <i type="logical" name="LWAVE"> F  </i>
   <i type="logical" name="LDOWNSAMPLE"> F  </i>
   <i type="logical" name="LCHARG"> F  </i>
   <i type="logical" name="LPARD"> F  </i>
   <i type="logical" name="LVTOT"> F  </i>
   <i type="logical" name="LVHAR"> F  </i>
   <i type="logical" name="LELF"> F  </i>
   <i type="logical" name="LOPTICS"> F  </i>
   <v name="STM">      0.00000000      0.00000000      0.00000000      0.00000000      0.00000000      0.00000000      0.00000000</v>
  </separator>
  <separator name="performance" >
   <i type="int" name="NPAR">    16</i>
   <i type="int" name="NSIM">     4</i>
   <i type="int" name="NBLK">    -1</i>
   <i type="logical" name="LPLANE"> T  </i>
   <i type="logical" name="LSCALAPACK"> T  </i>
   <i type="logical" name="LSCAAWARE"> F  </i>
   <i type="logical" name="LSCALU"> F  </i>
   <i type="logical" name="LASYNC"> F  </i>
   <i type="logical" name="LORBITALREAL"> F  </i>
  </separator>
  <separator name="miscellaneous" >
   <i type="int" name="IDIOT">     3</i>
   <i type="int" name="ISPECIAL">     0</i>
   <i type="logical" name="LMUSIC"> F  </i>
   <v name="POMASS">     12.01100000      1.00000000     14.00100000</v>
   <v name="DARWINR">      0.00000000      0.00000000      0.00000000</v>
   <v name="DARWINV">      1.00000000      1.00000000      1.00000000</v>
   <i type="logical" name="LCORR"> T  </i>
  </separator>
  <i type="logical" name="GGA_COMPAT"> T  </i>
  <i type="logical" name="LBERRY"> F  </i>
  <i type="int" name="ICORELEVEL">     0</i>
  <i type="logical" name="LDAU"> F  </i>
  <i type="int" name="I_CONSTRAINED_M">     0</i>
  <separator name="electronic exchange-correlation" >
   <i type="string" name="GGA">PE</i>
   <i type="int" name="VOSKOWN">     0</i>
   <i type="logical" name="LHFCALC"> F  </i>
   <i type="string" name="PRECFOCK"></i>
   <i type="logical" name="LSYMGRAD"> F  </i>
   <i type="logical" name="LHFONE"> F  </i>
   <i type="logical" name="LRHFCALC"> F  </i>
   <i type="logical" name="LTHOMAS"> F  </i>
   <i type="logical" name="LMODELHF"> F  </i>
   <i name="ENCUT4O">     -1.00000000</i>
   <i type="int" name="EXXOEP">     0</i>
   <i type="int" name="FOURORBIT">     0</i>
   <i name="AEXX">      0.00000000</i>
   <i name="HFALPHA">      0.00000000</i>
   <i name="MCALPHA">      0.00000000</i>
   <i name="ALDAX">      1.00000000</i>
   <i name="AGGAX">      1.00000000</i>
   <i name="ALDAC">      1.00000000</i>
   <i name="AGGAC">      1.00000000</i>
   <i type="int" name="NKREDX">     1</i>
   <i type="int" name="NKREDY">     1</i>
   <i type="int" name="NKREDZ">     1</i>
   <i type="logical" name="SHIFTRED"> F  </i>
   <i type="logical" name="ODDONLY"> F  </i>
   <i type="logical" name="EVENONLY"> F  </i>
   <i type="int" name="LMAXFOCK">     0</i>
   <i type="int" name="NMAXFOCKAE">     0</i>
   <i type="logical" name="LFOCKAEDFT"> F  </i>
   <i name="HFSCREEN">      0.00000000</i>
   <i name="HFSCREENC">      0.00000000</i>
   <i type="int" name="NBANDSGWLOW">     0</i>
  </separator>
  <separator name="vdW DFT" >
   <i type="logical" name="LUSE_VDW"> F  </i>
   <i name="Zab_VDW">     -0.84910000</i>
   <i name="PARAM1">      0.12340000</i>
   <i name="PARAM2">      1.00000000</i>
   <i name="PARAM3">      0.00000000</i>
  </separator>
  <separator name="model GW" >
   <i type="int" name="MODEL_GW">     0</i>
   <i name="MODEL_EPS0">     88.73807954</i>
   <i name="MODEL_ALPHA">      1.00000000</i>
  </separator>
  <separator name="linear response parameters" >
   <i type="logical" name="LEPSILON"> F  </i>
   <i type="logical" name="LRPA"> F  </i>
   <i type="logical" name="LNABLA"> F  </i>
   <i type="logical" name="LVEL"> F  </i>
   <i type="int" name="KINTER">     0</i>
   <i name="CSHIFT">      0.10000000</i>
   <i name="OMEGAMAX">     -1.00000000</i>
   <i name="DEG_THRESHOLD">      0.00200000</i>
   <i name="RTIME">     -0.10000000</i>
   <i name="WPLASMAI">      0.00000000</i>
   <v name="DFIELD">      0.00000000      0.00000000      0.00000000</v>
   <v name="WPLASMA">      0.00000000      0.00000000      0.00000000      0.00000000      0.00000000      0.00000000      0.00000000      0.00000000      0.00000000</v>
  </separator>
  <separator name="orbital magnetization" >
   <i type="logical" name="NUCIND"> F  </i>
   <v name="MAGPOS">      0.00000000      0.00000000      0.00000000</v>
   <i type="logical" name="LNICSALL"> T  </i>
   <i type="logical" name="ORBITALMAG"> F  </i>
   <i type="logical" name="LMAGBLOCH"> F  </i>
   <i type="logical" name="LCHIMAG"> F  </i>
   <i type="logical" name="LGAUGE"> T  </i>
   <i type="int" name="MAGATOM">     0</i>
   <v name="MAGDIPOL">      0.00000000      0.00000000      0.00000000</v>
   <v name="AVECCONST">      0.00000000      0.00000000      0.00000000</v>
  </separator>
  <separator name="response functions" >
   <i type="logical" name="LADDER"> F  </i>
   <i type="logical" name="LRPAFORCE"> F  </i>
   <i type="logical" name="LFXC"> F  </i>
   <i type="logical" name="LHARTREE"> T  </i>
   <i type="int" name="IBSE">     0</i>
   <v type="int" name="KPOINT">    -1     0     0     0</v>
   <i type="logical" name="LTCTE"> F  </i>
   <i type="logical" name="LTETE"> F  </i>
   <i type="logical" name="LTRIPLET"> F  </i>
   <i type="logical" name="LFXCEPS"> F  </i>
   <i type="logical" name="LFXHEG"> F  </i>
   <i type="int" name="NATURALO">     2</i>
   <i type="logical" name="L2ORDER"> F  </i>
   <i type="logical" name="LMP2LT"> F  </i>
   <i type="logical" name="LUSEW"> F  </i>
   <i name="ENCUTGW">     -2.00000000</i>
   <i name="ENCUTGWSOFT">     -2.00000000</i>
   <i name="ENCUTLF">     -1.00000000</i>
   <i type="int" name="LMAXMP2">    -1</i>
   <i name="SCISSOR">      0.00000000</i>
   <i type="int" name="NOMEGA">     0</i>
   <i type="int" name="NOMEGAR">     0</i>
   <i type="int" name="NBANDSGW">    -1</i>
   <i type="int" name="NBANDSO">    -1</i>
   <i type="int" name="NBANDSV">    -1</i>
   <i type="int" name="NELM">   200</i>
   <i type="int" name="NELMHF">     1</i>
   <i type="int" name="DIM">     3</i>
   <i type="int" name="ANTIRES">     0</i>
   <i name="OMEGAMAX">    -30.00000000</i>
   <i name="OMEGAMIN">    -30.00000000</i>
   <i name="OMEGATL">   -200.00000000</i>
   <i type="int" name="OMEGAGRID">   140</i>
   <i name="CSHIFT">     -0.10000000</i>
   <i type="logical" name="SELFENERGY"> F  </i>
   <i type="logical" name="LSPECTRAL"> F  </i>
   <i type="logical" name="LSPECTRALGW"> F  </i>
   <i type="logical" name="LSINGLES"> F  </i>
   <i type="logical" name="LFERMIGW"> F  </i>
   <i type="logical" name="ODDONLYGW"> F  </i>
   <i type="logical" name="EVENONLYGW"> F  </i>
   <i type="int" name="NKREDLFX">     1</i>
   <i type="int" name="NKREDLFY">     1</i>
   <i type="int" name="NKREDLFZ">     1</i>
   <i type="int" name="MAXMEM">  2800</i>
   <i type="int" name="TELESCOPE">     0</i>
   <i type="int" name="TAUPAR">     1</i>
   <i type="int" name="OMEGAPAR">    -1</i>
   <i name="LAMBDA">      1.00000000</i>
  </separator>
  <separator name="External order field" >
   <i name="OFIELD_KAPPA">      0.00000000</i>
   <v name="OFIELD_K">      0.00000000      0.00000000      0.00000000</v>
   <i name="OFIELD_Q6_NEAR">      0.00000000</i>
   <i name="OFIELD_Q6_FAR">      0.00000000</i>
   <i name="OFIELD_A">      0.00000000</i>
  </separator>
  <separator name="solvation model" >
   <i type="logical" name="LSOL"> F  </i>
  </separator>
 </parameters>
 <atominfo>
  <atoms>     102 </atoms>
  <types>       3 </types>
  <array name="atoms" >
   <dimension dim="1">ion</dimension>
   <field type="string">element</field>
   <field type="int">atomtype</field>
   <set>
    <rc><c>C </c><c>   1</c></rc>
    <rc><c>C </c><c>   1</c></rc>
    <rc><c>C </c><c>   1</c></rc>
    <rc><c>C </c><c>   1</c></rc>
    <rc><c>C </c><c>   1</c></rc>
    <rc><c>C </c><c>   1</c></rc>
    <rc><c>C </c><c>   1</c></rc>
    <rc><c>C </c><c>   1</c></rc>
    <rc><c>C </c><c>   1</c></rc>
    <rc><c>C </c><c>   1</c></rc>
    <rc><c>C </c><c>   1</c></rc>
    <rc><c>C </c><c>   1</c></rc>
    <rc><c>C </c><c>   1</c></rc>
    <rc><c>C </c><c>   1</c></rc>
    <rc><c>C </c><c>   1</c></rc>
    <rc><c>C </c><c>   1</c></rc>
    <rc><c>C </c><c>   1</c></rc>
    <rc><c>C </c><c>   1</c></rc>
    <rc><c>C </c><c>   1</c></rc>
    <rc><c>C </c><c>   1</c></rc>
    <rc><c>C </c><c>   1</c></rc>
    <rc><c>C </c><c>   1</c></rc>
    <rc><c>C </c><c>   1</c></rc>
    <rc><c>C </c><c>   1</c></rc>
    <rc><c>C </c><c>   1</c></rc>
    <rc><c>C </c><c>   1</c></rc>
    <rc><c>C </c><c>   1</c></rc>
    <rc><c>C </c><c>   1</c></rc>
    <rc><c>C </c><c>   1</c></rc>
    <rc><c>C </c><c>   1</c></rc>
    <rc><c>C </c><c>   1</c></rc>
    <rc><c>C </c><c>   1</c></rc>
    <rc><c>C </c><c>   1</c></rc>
    <rc><c>C </c><c>   1</c></rc>
    <rc><c>C </c><c>   1</c></rc>
    <rc><c>C </c><c>   1</c></rc>
    <rc><c>C </c><c>   1</c></rc>
    <rc><c>C </c><c>   1</c></rc>
    <rc><c>C </c><c>   1</c></rc>
    <rc><c>C </c><c>   1</c></rc>
    <rc><c>C </c><c>   1</c></rc>
    <rc><c>C </c><c>   1</c></rc>
    <rc><c>C </c><c>   1</c></rc>
    <rc><c>C </c><c>   1</c></rc>
    <rc><c>C </c><c>   1</c></rc>
    <rc><c>C </c><c>   1</c></rc>
    <rc><c>C </c><c>   1</c></rc>
    <rc><c>C </c><c>   1</c></rc>
    <rc><c>C </c><c>   1</c></rc>
    <rc><c>C </c><c>   1</c></rc>
    <rc><c>C </c><c>   1</c></rc>
    <rc><c>C </c><c>   1</c></rc>
    <rc><c>C </c><c>   1</c></rc>
    <rc><c>C </c><c>   1</c></rc>
    <rc><c>C </c><c>   1</c></rc>
    <rc><c>C </c><c>   1</c></rc>
    <rc><c>C </c><c>   1</c></rc>
    <rc><c>C </c><c>   1</c></rc>
    <rc><c>C </c><c>   1</c></rc>
    <rc><c>C </c><c>   1</c></rc>
    <rc><c>H </c><c>   2</c></rc>
    <rc><c>H </c><c>   2</c></rc>
    <rc><c>H </c><c>   2</c></rc>
    <rc><c>H </c><c>   2</c></rc>
    <rc><c>H </c><c>   2</c></rc>
    <rc><c>H </c><c>   2</c></rc>
    <rc><c>H </c><c>   2</c></rc>
    <rc><c>H </c><c>   2</c></rc>
    <rc><c>H </c><c>   2</c></rc>
    <rc><c>H </c><c>   2</c></rc>
    <rc><c>H </c><c>   2</c></rc>
    <rc><c>H </c><c>   2</c></rc>
    <rc><c>H </c><c>   2</c></rc>
    <rc><c>H </c><c>   2</c></rc>
    <rc><c>H </c><c>   2</c></rc>
    <rc><c>H </c><c>   2</c></rc>
    <rc><c>H </c><c>   2</c></rc>
    <rc><c>H </c><c>   2</c></rc>
    <rc><c>H </c><c>   2</c></rc>
    <rc><c>H </c><c>   2</c></rc>
    <rc><c>H </c><c>   2</c></rc>
    <rc><c>H </c><c>   2</c></rc>
    <rc><c>H </c><c>   2</c></rc>
    <rc><c>H </c><c>   2</c></rc>
    <rc><c>H </c><c>   2</c></rc>
    <rc><c>H </c><c>   2</c></rc>
    <rc><c>H </c><c>   2</c></rc>
    <rc><c>H </c><c>   2</c></rc>
    <rc><c>H </c><c>   2</c></rc>
    <rc><c>H </c><c>   2</c></rc>
    <rc><c>H </c><c>   2</c></rc>
    <rc><c>H </c><c>   2</c></rc>
    <rc><c>H </c><c>   2</c></rc>
    <rc><c>H </c><c>   2</c></rc>
    <rc><c>H </c><c>   2</c></rc>
    <rc><c>H </c><c>   2</c></rc>
    <rc><c>N </c><c>   3</c></rc>
    <rc><c>N </c><c>   3</c></rc>
    <rc><c>N </c><c>   3</c></rc>
    <rc><c>N </c><c>   3</c></rc>
    <rc><c>N </c><c>   3</c></rc>
    <rc><c>N </c><c>   3</c></rc>
   </set>
  </array>
  <array name="atomtypes" >
   <dimension dim="1">type</dimension>
   <field type="int">atomspertype</field>
   <field type="string">element</field>
   <field>mass</field>
   <field>valence</field>
   <field type="string">pseudopotential</field>
   <set>
    <rc><c>  60</c><c>C </c><c>     12.01100000</c><c>      4.00000000</c><c>  PAW_PBE C 08Apr2002                   </c></rc>
    <rc><c>  36</c><c>H </c><c>      1.00000000</c><c>      1.00000000</c><c>  PAW_PBE H 15Jun2001                   </c></rc>
    <rc><c>   6</c><c>N </c><c>     14.00100000</c><c>      5.00000000</c><c>  PAW_PBE N 08Apr2002                   </c></rc>
   </set>
  </array>
 </atominfo>
 <structure name="initialpos" >
  <crystal>
   <varray name="basis" >
    <v>      29.51203517       0.00000000       0.00000000 </v>
    <v>     -14.75601758      25.55817217       0.00000000 </v>
    <v>       0.00000000       0.00000000      20.00000000 </v>
   </varray>
   <i name="volume">  15085.47352130 </i>
   <varray name="rec_basis" >
    <v>       0.03388448       0.01956321       0.00000000 </v>
    <v>       0.00000000       0.03912643       0.00000000 </v>
    <v>       0.00000000       0.00000000       0.05000000 </v>
   </varray>
  </crystal>
  <varray name="positions" >
   <v>       0.02731786       0.51365893       0.56268045 </v>
   <v>       0.02730145       0.51365072       0.44206099 </v>
   <v>       0.35904880       0.71809760       0.50198120 </v>
   <v>       0.35904880       0.64095120       0.50198120 </v>
   <v>       0.28190240       0.64095120       0.50198120 </v>
   <v>       0.38800441       0.61199559       0.50207353 </v>
   <v>       0.44296776       0.63903519       0.50213997 </v>
   <v>       0.47013810       0.61172491       0.50225622 </v>
   <v>       0.44321679       0.55678321       0.50231291 </v>
   <v>       0.38827509       0.52986190       0.50225622 </v>
   <v>       0.36096481       0.55703224       0.50213997 </v>
   <v>       0.38800441       0.77600882       0.50207353 </v>
   <v>       0.44296776       0.80393257       0.50213997 </v>
   <v>       0.47013810       0.85841319       0.50225622 </v>
   <v>       0.44321679       0.88643357       0.50231291 </v>
   <v>       0.38827509       0.85841319       0.50225622 </v>
   <v>       0.36096481       0.80393257       0.50213997 </v>
   <v>       0.22399118       0.61199559       0.50207353 </v>
   <v>       0.19606743       0.63903519       0.50213997 </v>
   <v>       0.14158681       0.61172491       0.50225622 </v>
   <v>       0.11356643       0.55678321       0.50231291 </v>
   <v>       0.14158681       0.52986190       0.50225622 </v>
   <v>       0.19606743       0.55703224       0.50213997 </v>
   <v>       0.64095104       0.28190207       0.50198456 </v>
   <v>       0.64095104       0.35904896       0.50198456 </v>
   <v>       0.71809793       0.35904896       0.50198456 </v>
   <v>       0.61199513       0.38800487       0.50208999 </v>
   <v>       0.55703199       0.36096595       0.50216375 </v>
   <v>       0.52986151       0.38827587       0.50229000 </v>
   <v>       0.55678258       0.44321742       0.50234923 </v>
   <v>       0.61172413       0.47013849       0.50229000 </v>
   <v>       0.63903405       0.44296801       0.50216375 </v>
   <v>       0.61199513       0.22399026       0.50208999 </v>
   <v>       0.55703199       0.19606605       0.50216375 </v>
   <v>       0.52986151       0.14158565       0.50229000 </v>
   <v>       0.55678258       0.11356516       0.50234923 </v>
   <v>       0.61172413       0.14158565       0.50229000 </v>
   <v>       0.63903405       0.19606605       0.50216375 </v>
   <v>       0.77600974       0.38800487       0.50208999 </v>
   <v>       0.80393395       0.36096595       0.50216375 </v>
   <v>       0.85841435       0.38827587       0.50229000 </v>
   <v>       0.88643484       0.44321742       0.50234923 </v>
   <v>       0.85841435       0.47013849       0.50229000 </v>
   <v>       0.80393395       0.44296801       0.50216375 </v>
   <v>       0.51365101       0.48634899       0.56269251 </v>
   <v>       0.48634107       0.51365893       0.56268045 </v>
   <v>       0.47234691       0.52765309       0.50236522 </v>
   <v>       0.52765269       0.47234731       0.50238895 </v>
   <v>       0.51365101       0.02730202       0.56269251 </v>
   <v>       0.48634107       0.97268214       0.56268045 </v>
   <v>       0.47234691       0.94469383       0.50236522 </v>
   <v>       0.52765269       0.05530538       0.50238895 </v>
   <v>       0.97269798       0.48634899       0.56269251 </v>
   <v>       0.05530617       0.52765309       0.50236522 </v>
   <v>       0.94469462       0.47234731       0.50238895 </v>
   <v>       0.48634928       0.51365072       0.44206099 </v>
   <v>       0.51365822       0.48634178       0.44207300 </v>
   <v>       0.48634928       0.97269855       0.44206099 </v>
   <v>       0.51365822       0.02731644       0.44207300 </v>
   <v>       0.97268356       0.48634178       0.44207300 </v>
   <v>       0.51283530       0.87982882       0.50228592 </v>
   <v>       0.46386011       0.78220320       0.50209859 </v>
   <v>       0.36699352       0.87982882       0.50228592 </v>
   <v>       0.31834308       0.78220320       0.50209859 </v>
   <v>       0.21779680       0.68165692       0.50209859 </v>
   <v>       0.12017118       0.63300648       0.50228592 </v>
   <v>       0.21779680       0.53613989       0.50209859 </v>
   <v>       0.12017118       0.48716470       0.50228592 </v>
   <v>       0.31834308       0.53613989       0.50209859 </v>
   <v>       0.36699352       0.48716470       0.50228592 </v>
   <v>       0.51283530       0.63300648       0.50228592 </v>
   <v>       0.46386011       0.68165692       0.50209859 </v>
   <v>       0.48716444       0.12017085       0.50232210 </v>
   <v>       0.53614036       0.21779602       0.50211887 </v>
   <v>       0.63300641       0.12017085       0.50232210 </v>
   <v>       0.68165565       0.21779602       0.50211887 </v>
   <v>       0.78220398       0.31834435       0.50211887 </v>
   <v>       0.87982915       0.36699359       0.50232210 </v>
   <v>       0.78220398       0.46385964       0.50211887 </v>
   <v>       0.87982915       0.51283556       0.50232210 </v>
   <v>       0.68165565       0.46385964       0.50211887 </v>
   <v>       0.63300641       0.51283556       0.50232210 </v>
   <v>       0.48716444       0.36699359       0.50232210 </v>
   <v>       0.53614036       0.31834435       0.50211887 </v>
   <v>       0.47568188       0.52431812       0.60996020 </v>
   <v>       0.52430337       0.47569663       0.60998180 </v>
   <v>       0.47568188       0.95136375       0.60996020 </v>
   <v>       0.52430337       0.04860674       0.60998180 </v>
   <v>       0.04863625       0.52431812       0.60996020 </v>
   <v>       0.95139326       0.47569663       0.60998180 </v>
   <v>       0.47569193       0.52430807       0.39477457 </v>
   <v>       0.52432195       0.47567805       0.39479612 </v>
   <v>       0.47569193       0.95138386       0.39477457 </v>
   <v>       0.52432195       0.04864390       0.39479612 </v>
   <v>       0.04861614       0.52430807       0.39477457 </v>
   <v>       0.95135610       0.47567805       0.39479612 </v>
   <v>       0.38709220       0.69354610       0.50196735 </v>
   <v>       0.30645390       0.61290780       0.50196735 </v>
   <v>       0.30645390       0.69354610       0.50196735 </v>
   <v>       0.61290775       0.30645387       0.50196869 </v>
   <v>       0.69354613       0.38709225       0.50196869 </v>
   <v>       0.69354613       0.30645387       0.50196869 </v>
  </varray>
 </structure>
 <calculation>
  <scstep>
   <time name="dav">  520.79  526.85</time>
   <time name="total">  521.05  527.12</time>
   <energy>
    <i name="alphaZ">     29.39613204 </i>
    <i name="ewald">  35995.02323022 </i>
    <i name="hartreedc"> -44848.68539481 </i>
    <i name="XCdc">   1041.21667733 </i>
    <i name="pawpsdc">  28164.19826998 </i>
    <i name="pawaedc"> -28214.48237842 </i>
    <i name="eentropy">     -0.00000000 </i>
    <i name="bandstr">  -3753.99290869 </i>
    <i name="atom">  10865.62587272 </i>
    <i name="e_fr_energy">   -721.70049964 </i>
    <i name="e_wo_entrp">   -721.70049964 </i>
    <i name="e_0_energy">   -721.70049964 </i>
   </energy>
  </scstep>
  <scstep>
   <time name="dav">  580.87  587.53</time>
   <time name="total">  580.87  587.53</time>
   <energy>
    <i name="e_fr_energy">   -722.05537842 </i>
    <i name="e_wo_entrp">   -722.05537842 </i>
    <i name="e_0_energy">   -722.05537842 </i>
   </energy>
  </scstep>
  <scstep>
   <time name="dav">  644.21  651.60</time>
   <time name="total">  644.21  651.60</time>
   <energy>
    <i name="e_fr_energy">   -722.06501201 </i>
    <i name="e_wo_entrp">   -722.06501201 </i>
    <i name="e_0_energy">   -722.06501201 </i>
   </energy>
  </scstep>
  <scstep>
   <time name="dav">  583.19  589.88</time>
   <time name="total">  583.19  589.88</time>
   <energy>
    <i name="e_fr_energy">   -722.06516823 </i>
    <i name="e_wo_entrp">   -722.06516823 </i>
    <i name="e_0_energy">   -722.06516823 </i>
   </energy>
  </scstep>
  <scstep>
   <time name="dav">  532.90  539.17</time>
   <time name="total">  532.90  539.17</time>
   <energy>
    <i name="alphaZ">     29.39613204 </i>
    <i name="ewald">  35995.02323022 </i>
    <i name="hartreedc"> -44848.68539481 </i>
    <i name="XCdc">   1041.21667733 </i>
    <i name="pawpsdc">  28164.19826998 </i>
    <i name="pawaedc"> -28214.48237842 </i>
    <i name="eentropy">     -0.00000000 </i>
    <i name="bandstr">  -3754.35758520 </i>
    <i name="atom">  10865.62587272 </i>
    <i name="e_fr_energy">   -722.06517614 </i>
    <i name="e_wo_entrp">   -722.06517614 </i>
    <i name="e_0_energy">   -722.06517614 </i>
   </energy>
  </scstep>
  <structure>
   <crystal>
    <varray name="basis" >
     <v>      29.51203517       0.00000000       0.00000000 </v>
     <v>     -14.75601758      25.55817217       0.00000000 </v>
     <v>       0.00000000       0.00000000      20.00000000 </v>
    </varray>
    <i name="volume">  15085.47352130 </i>
    <varray name="rec_basis" >
     <v>       0.03388448       0.01956321       0.00000000 </v>
     <v>       0.00000000       0.03912643       0.00000000 </v>
     <v>       0.00000000       0.00000000       0.05000000 </v>
    </varray>
   </crystal>
   <varray name="positions" >
    <v>       0.02731786       0.51365893       0.56268045 </v>
    <v>       0.02730145       0.51365072       0.44206099 </v>
    <v>       0.35904880       0.71809760       0.50198120 </v>
    <v>       0.35904880       0.64095120       0.50198120 </v>
    <v>       0.28190240       0.64095120       0.50198120 </v>
    <v>       0.38800441       0.61199559       0.50207353 </v>
    <v>       0.44296776       0.63903519       0.50213997 </v>
    <v>       0.47013810       0.61172491       0.50225622 </v>
    <v>       0.44321679       0.55678321       0.50231291 </v>
    <v>       0.38827509       0.52986190       0.50225622 </v>
    <v>       0.36096481       0.55703224       0.50213997 </v>
    <v>       0.38800441       0.77600882       0.50207353 </v>
    <v>       0.44296776       0.80393257       0.50213997 </v>
    <v>       0.47013810       0.85841319       0.50225622 </v>
    <v>       0.44321679       0.88643357       0.50231291 </v>
    <v>       0.38827509       0.85841319       0.50225622 </v>
    <v>       0.36096481       0.80393257       0.50213997 </v>
    <v>       0.22399118       0.61199559       0.50207353 </v>
    <v>       0.19606743       0.63903519       0.50213997 </v>
    <v>       0.14158681       0.61172491       0.50225622 </v>
    <v>       0.11356643       0.55678321       0.50231291 </v>
    <v>       0.14158681       0.52986190       0.50225622 </v>
    <v>       0.19606743       0.55703224       0.50213997 </v>
    <v>       0.64095104       0.28190207       0.50198456 </v>
    <v>       0.64095104       0.35904896       0.50198456 </v>
    <v>       0.71809793       0.35904896       0.50198456 </v>
    <v>       0.61199513       0.38800487       0.50208999 </v>
    <v>       0.55703199       0.36096595       0.50216375 </v>
    <v>       0.52986151       0.38827587       0.50229000 </v>
    <v>       0.55678258       0.44321742       0.50234923 </v>
    <v>       0.61172413       0.47013849       0.50229000 </v>
    <v>       0.63903405       0.44296801       0.50216375 </v>
    <v>       0.61199513       0.22399026       0.50208999 </v>
    <v>       0.55703199       0.19606605       0.50216375 </v>
    <v>       0.52986151       0.14158565       0.50229000 </v>
    <v>       0.55678258       0.11356516       0.50234923 </v>
    <v>       0.61172413       0.14158565       0.50229000 </v>
    <v>       0.63903405       0.19606605       0.50216375 </v>
    <v>       0.77600974       0.38800487       0.50208999 </v>
    <v>       0.80393395       0.36096595       0.50216375 </v>
    <v>       0.85841435       0.38827587       0.50229000 </v>
    <v>       0.88643484       0.44321742       0.50234923 </v>
    <v>       0.85841435       0.47013849       0.50229000 </v>
    <v>       0.80393395       0.44296801       0.50216375 </v>
    <v>       0.51365101       0.48634899       0.56269251 </v>
    <v>       0.48634107       0.51365893       0.56268045 </v>
    <v>       0.47234691       0.52765309       0.50236522 </v>
    <v>       0.52765269       0.47234731       0.50238895 </v>
    <v>       0.51365101       0.02730202       0.56269251 </v>
    <v>       0.48634107       0.97268214       0.56268045 </v>
    <v>       0.47234691       0.94469383       0.50236522 </v>
    <v>       0.52765269       0.05530538       0.50238895 </v>
    <v>       0.97269798       0.48634899       0.56269251 </v>
    <v>       0.05530617       0.52765309       0.50236522 </v>
    <v>       0.94469462       0.47234731       0.50238895 </v>
    <v>       0.48634928       0.51365072       0.44206099 </v>
    <v>       0.51365822       0.48634178       0.44207300 </v>
    <v>       0.48634928       0.97269855       0.44206099 </v>
    <v>       0.51365822       0.02731644       0.44207300 </v>
    <v>       0.97268356       0.48634178       0.44207300 </v>
    <v>       0.51283530       0.87982882       0.50228592 </v>
    <v>       0.46386011       0.78220320       0.50209859 </v>
    <v>       0.36699352       0.87982882       0.50228592 </v>
    <v>       0.31834308       0.78220320       0.50209859 </v>
    <v>       0.21779680       0.68165692       0.50209859 </v>
    <v>       0.12017118       0.63300648       0.50228592 </v>
    <v>       0.21779680       0.53613989       0.50209859 </v>
    <v>       0.12017118       0.48716470       0.50228592 </v>
    <v>       0.31834308       0.53613989       0.50209859 </v>
    <v>       0.36699352       0.48716470       0.50228592 </v>
    <v>       0.51283530       0.63300648       0.50228592 </v>
    <v>       0.46386011       0.68165692       0.50209859 </v>
    <v>       0.48716444       0.12017085       0.50232210 </v>
    <v>       0.53614036       0.21779602       0.50211887 </v>
    <v>       0.63300641       0.12017085       0.50232210 </v>
    <v>       0.68165565       0.21779602       0.50211887 </v>
    <v>       0.78220398       0.31834435       0.50211887 </v>
    <v>       0.87982915       0.36699359       0.50232210 </v>
    <v>       0.78220398       0.46385964       0.50211887 </v>
    <v>       0.87982915       0.51283556       0.50232210 </v>
    <v>       0.68165565       0.46385964       0.50211887 </v>
    <v>       0.63300641       0.51283556       0.50232210 </v>
    <v>       0.48716444       0.36699359       0.50232210 </v>
    <v>       0.53614036       0.31834435       0.50211887 </v>
    <v>       0.47568188       0.52431812       0.60996020 </v>
    <v>       0.52430337       0.47569663       0.60998180 </v>
    <v>       0.47568188       0.95136375       0.60996020 </v>
    <v>       0.52430337       0.04860674       0.60998180 </v>
    <v>       0.04863625       0.52431812       0.60996020 </v>
    <v>       0.95139326       0.47569663       0.60998180 </v>
    <v>       0.47569193       0.52430807       0.39477457 </v>
    <v>       0.52432195       0.47567805       0.39479612 </v>
    <v>       0.47569193       0.95138386       0.39477457 </v>
    <v>       0.52432195       0.04864390       0.39479612 </v>
    <v>       0.04861614       0.52430807       0.39477457 </v>
    <v>       0.95135610       0.47567805       0.39479612 </v>
    <v>       0.38709220       0.69354610       0.50196735 </v>
    <v>       0.30645390       0.61290780       0.50196735 </v>
    <v>       0.30645390       0.69354610       0.50196735 </v>
    <v>       0.61290775       0.30645387       0.50196869 </v>
    <v>       0.69354613       0.38709225       0.50196869 </v>
    <v>       0.69354613       0.30645387       0.50196869 </v>
   </varray>
  </structure>
  <varray name="forces" >
   <v>       0.00055439       0.00032008      -0.00234776 </v>
   <v>       0.00023244       0.00013420       0.00103166 </v>
   <v>      -0.00000000       0.00428769       0.00074885 </v>
   <v>       0.00371325      -0.00214385       0.00074885 </v>
   <v>      -0.00371325      -0.00214385       0.00074885 </v>
   <v>       0.00364920      -0.00210686       0.00028832 </v>
   <v>       0.00358438       0.00076230       0.00003206 </v>
   <v>       0.00202937       0.00100242      -0.00041314 </v>
   <v>      -0.00440056       0.00254067      -0.00056116 </v>
   <v>       0.00014656      -0.00225870      -0.00041314 </v>
   <v>       0.00113202      -0.00348531       0.00003206 </v>
   <v>      -0.00000000       0.00421373       0.00028832 </v>
   <v>       0.00245236       0.00272302       0.00003206 </v>
   <v>       0.00188281       0.00125628      -0.00041314 </v>
   <v>       0.00000000      -0.00508133      -0.00056116 </v>
   <v>      -0.00188281       0.00125628      -0.00041314 </v>
   <v>      -0.00245236       0.00272302       0.00003206 </v>
   <v>      -0.00364920      -0.00210686       0.00028832 </v>
   <v>      -0.00358438       0.00076230       0.00003206 </v>
   <v>      -0.00202937       0.00100242      -0.00041314 </v>
   <v>       0.00440056       0.00254067      -0.00056116 </v>
   <v>      -0.00014656      -0.00225870      -0.00041314 </v>
   <v>      -0.00113202      -0.00348531       0.00003206 </v>
   <v>       0.00000000      -0.00413980       0.00089288 </v>
   <v>      -0.00358517       0.00206990       0.00089288 </v>
   <v>       0.00358517       0.00206990       0.00089288 </v>
   <v>      -0.00378395       0.00218466       0.00022816 </v>
   <v>      -0.00306145      -0.00096931       0.00044988 </v>
   <v>      -0.00155895      -0.00070322      -0.00036013 </v>
   <v>       0.00508470      -0.00293565      -0.00058204 </v>
   <v>      -0.00017047       0.00170170      -0.00036013 </v>
   <v>      -0.00069128       0.00313595       0.00044988 </v>
   <v>       0.00000000      -0.00436933       0.00022816 </v>
   <v>      -0.00237017      -0.00216664       0.00044988 </v>
   <v>      -0.00138849      -0.00099848      -0.00036013 </v>
   <v>      -0.00000000       0.00587131      -0.00058204 </v>
   <v>       0.00138849      -0.00099848      -0.00036013 </v>
   <v>       0.00237017      -0.00216664       0.00044988 </v>
   <v>       0.00378395       0.00218466       0.00022816 </v>
   <v>       0.00306145      -0.00096931       0.00044988 </v>
   <v>       0.00155895      -0.00070322      -0.00036013 </v>
   <v>      -0.00508470      -0.00293565      -0.00058204 </v>
   <v>       0.00017047       0.00170170      -0.00036013 </v>
   <v>       0.00069128       0.00313595       0.00044988 </v>
   <v>       0.00025612      -0.00014787      -0.00208221 </v>
   <v>      -0.00055439       0.00032008      -0.00234776 </v>
   <v>      -0.00031414       0.00018137      -0.00080714 </v>
   <v>       0.00045779      -0.00026431      -0.00098461 </v>
   <v>      -0.00000000       0.00029574      -0.00208221 </v>
   <v>       0.00000000      -0.00064016      -0.00234776 </v>
   <v>       0.00000000      -0.00036274      -0.00080714 </v>
   <v>      -0.00000000       0.00052861      -0.00098461 </v>
   <v>      -0.00025612      -0.00014787      -0.00208221 </v>
   <v>       0.00031414       0.00018137      -0.00080714 </v>
   <v>      -0.00045779      -0.00026431      -0.00098461 </v>
   <v>      -0.00023244       0.00013420       0.00103166 </v>
   <v>      -0.00045822       0.00026455       0.00065551 </v>
   <v>       0.00000000      -0.00026840       0.00103166 </v>
   <v>       0.00000000      -0.00052911       0.00065551 </v>
   <v>       0.00045822       0.00026455       0.00065551 </v>
   <v>       0.00274088       0.00076820       0.00006341 </v>
   <v>      -0.00009335      -0.00446854       0.00025909 </v>
   <v>      -0.00274088       0.00076820       0.00006341 </v>
   <v>       0.00009335      -0.00446854       0.00025909 </v>
   <v>       0.00391655       0.00215343       0.00025909 </v>
   <v>      -0.00203573       0.00198957       0.00006341 </v>
   <v>       0.00382320       0.00231512       0.00025909 </v>
   <v>       0.00070516      -0.00275778       0.00006341 </v>
   <v>      -0.00382320       0.00231512       0.00025909 </v>
   <v>      -0.00070516      -0.00275778       0.00006341 </v>
   <v>       0.00203573       0.00198957       0.00006341 </v>
   <v>      -0.00391655       0.00215343       0.00025909 </v>
   <v>      -0.00279159      -0.00082723       0.00015461 </v>
   <v>       0.00000647       0.00442466       0.00014835 </v>
   <v>       0.00279159      -0.00082723       0.00015461 </v>
   <v>      -0.00000647       0.00442466       0.00014835 </v>
   <v>      -0.00383510      -0.00220673       0.00014835 </v>
   <v>       0.00211220      -0.00200397       0.00015461 </v>
   <v>      -0.00382864      -0.00221793       0.00014835 </v>
   <v>      -0.00067939       0.00283120       0.00015461 </v>
   <v>       0.00382864      -0.00221793       0.00014835 </v>
   <v>       0.00067939       0.00283120       0.00015461 </v>
   <v>      -0.00211220      -0.00200397       0.00015461 </v>
   <v>       0.00383510      -0.00220673       0.00014835 </v>
   <v>      -0.00030996       0.00017895       0.00131926 </v>
   <v>      -0.00025221       0.00014561       0.00138538 </v>
   <v>       0.00000000      -0.00035791       0.00131926 </v>
   <v>       0.00000000      -0.00029122       0.00138538 </v>
   <v>       0.00030996       0.00017895       0.00131926 </v>
   <v>       0.00025221       0.00014561       0.00138538 </v>
   <v>      -0.00004542       0.00002622      -0.00121735 </v>
   <v>      -0.00007742       0.00004470      -0.00169213 </v>
   <v>       0.00000000      -0.00005244      -0.00121735 </v>
   <v>       0.00000000      -0.00008940      -0.00169213 </v>
   <v>       0.00004542       0.00002622      -0.00121735 </v>
   <v>       0.00007742       0.00004470      -0.00169213 </v>
   <v>       0.00188517       0.00108840       0.00096756 </v>
   <v>       0.00000000      -0.00217680       0.00096756 </v>
   <v>      -0.00188517       0.00108840       0.00096756 </v>
   <v>      -0.00162562      -0.00093855       0.00208856 </v>
   <v>      -0.00000000       0.00187710       0.00208856 </v>
   <v>       0.00162562      -0.00093855       0.00208856 </v>
  </varray>
  <varray name="stress" >
   <v>       0.00472177      -0.00000000      -0.00000000 </v>
   <v>      -0.00000000       0.00472177      -0.00000000 </v>
   <v>      -0.00000000       0.00000000      -0.11854277 </v>
  </varray>
  <energy>
   <i name="e_fr_energy">   -723.93878406 </i>
   <i name="e_wo_entrp">   -723.93878406 </i>
   <i name="e_0_energy">     -0.00000000 </i>
  </energy>
  <time name="totalsc"> 3465.27 3507.15</time>
  <eigenvalues>
   <array>
    <dimension dim="1">band</dimension>
    <dimension dim="2">kpoint</dimension>
    <dimension dim="3">spin</dimension>
    <field>eigene</field>
    <field>occ</field>
    <set>
     <set comment="spin 1">
      <set comment="kpoint 1">
       <r>  -25.1765    1.0000 </r>
       <r>  -25.1760    1.0000 </r>
       <r>  -22.2587    1.0000 </r>
       <r>  -22.2586    1.0000 </r>
       <r>  -22.2568    1.0000 </r>
       <r>  -22.2567    1.0000 </r>
       <r>  -21.5638    1.0000 </r>
       <r>  -21.5313    1.0000 </r>
       <r>  -21.5309    1.0000 </r>
       <r>  -21.2531    1.0000 </r>
       <r>  -21.1860    1.0000 </r>
       <r>  -21.1860    1.0000 </r>
       <r>  -20.8390    1.0000 </r>
       <r>  -20.8004    1.0000 </r>
       <r>  -20.8001    1.0000 </r>
       <r>  -19.5254    1.0000 </r>
       <r>  -19.5252    1.0000 </r>
       <r>  -19.4651    1.0000 </r>
       <r>  -18.8452    1.0000 </r>
       <r>  -18.8451    1.0000 </r>
       <r>  -18.6152    1.0000 </r>
       <r>  -18.3119    1.0000 </r>
       <r>  -18.3118    1.0000 </r>
       <r>  -18.2936    1.0000 </r>
       <r>  -18.2933    1.0000 </r>
       <r>  -18.2717    1.0000 </r>
       <r>  -18.2717    1.0000 </r>
       <r>  -18.2707    1.0000 </r>
       <r>  -18.2671    1.0000 </r>
       <r>  -18.2670    1.0000 </r>
       <r>  -17.9166    1.0000 </r>
       <r>  -17.9163    1.0000 </r>
       <r>  -17.5898    1.0000 </r>
       <r>  -16.7510    1.0000 </r>
       <r>  -16.7509    1.0000 </r>
       <r>  -16.1594    1.0000 </r>
       <r>  -16.1594    1.0000 </r>
       <r>  -15.7738    1.0000 </r>
       <r>  -15.0066    1.0000 </r>
       <r>  -15.0039    1.0000 </r>
       <r>  -14.9593    1.0000 </r>
       <r>  -14.9593    1.0000 </r>
       <r>  -14.8312    1.0000 </r>
       <r>  -14.8014    1.0000 </r>
       <r>  -14.8013    1.0000 </r>
       <r>  -14.8007    1.0000 </r>
       <r>  -14.7037    1.0000 </r>
       <r>  -14.7037    1.0000 </r>
       <r>  -14.5251    1.0000 </r>
       <r>  -14.5249    1.0000 </r>
       <r>  -13.9870    1.0000 </r>
       <r>  -13.9869    1.0000 </r>
       <r>  -13.9506    1.0000 </r>
       <r>  -13.7507    1.0000 </r>
       <r>  -13.7505    1.0000 </r>
       <r>  -13.1064    1.0000 </r>
       <r>  -13.1021    1.0000 </r>
       <r>  -13.0976    1.0000 </r>
       <r>  -13.0813    1.0000 </r>
       <r>  -12.7959    1.0000 </r>
       <r>  -12.7956    1.0000 </r>
       <r>  -12.5036    1.0000 </r>
       <r>  -12.2951    1.0000 </r>
       <r>  -12.2950    1.0000 </r>
       <r>  -11.5679    1.0000 </r>
       <r>  -11.4598    1.0000 </r>
       <r>  -11.4598    1.0000 </r>
       <r>  -11.1593    1.0000 </r>
       <r>  -11.1448    1.0000 </r>
       <r>  -11.1443    1.0000 </r>
       <r>  -11.1399    1.0000 </r>
       <r>  -11.1399    1.0000 </r>
       <r>  -11.0423    1.0000 </r>
       <r>  -11.0234    1.0000 </r>
       <r>  -10.8297    1.0000 </r>
       <r>  -10.8296    1.0000 </r>
       <r>  -10.8142    1.0000 </r>
       <r>  -10.8142    1.0000 </r>
       <r>  -10.6993    1.0000 </r>
       <r>  -10.6589    1.0000 </r>
       <r>  -10.6451    1.0000 </r>
       <r>  -10.6387    1.0000 </r>
       <r>  -10.5598    1.0000 </r>
       <r>  -10.5595    1.0000 </r>
       <r>  -10.4777    1.0000 </r>
       <r>  -10.4776    1.0000 </r>
       <r>  -10.3832    1.0000 </r>
       <r>  -10.0163    1.0000 </r>
       <r>  -10.0163    1.0000 </r>
       <r>   -9.9854    1.0000 </r>
       <r>   -9.9854    1.0000 </r>
       <r>   -9.9828    1.0000 </r>
       <r>   -9.9825    1.0000 </r>
       <r>   -9.9816    1.0000 </r>
       <r>   -9.9324    1.0000 </r>
       <r>   -9.9269    1.0000 </r>
       <r>   -9.7863    1.0000 </r>
       <r>   -9.7862    1.0000 </r>
       <r>   -9.7363    1.0000 </r>
       <r>   -9.3108    1.0000 </r>
       <r>   -9.3108    1.0000 </r>
       <r>   -9.2166    1.0000 </r>
       <r>   -9.2166    1.0000 </r>
       <r>   -9.0711    1.0000 </r>
       <r>   -9.0710    1.0000 </r>
       <r>   -8.8797    1.0000 </r>
       <r>   -8.8088    1.0000 </r>
       <r>   -8.8083    1.0000 </r>
       <r>   -8.7853    1.0000 </r>
       <r>   -8.6637    1.0000 </r>
       <r>   -8.5712    1.0000 </r>
       <r>   -8.4332    1.0000 </r>
       <r>   -8.4328    1.0000 </r>
       <r>   -8.2801    1.0000 </r>
       <r>   -8.2799    1.0000 </r>
       <r>   -8.2737    1.0000 </r>
       <r>   -8.2737    1.0000 </r>
       <r>   -8.1068    1.0000 </r>
       <r>   -8.1068    1.0000 </r>
       <r>   -8.0484    1.0000 </r>
       <r>   -7.9874    1.0000 </r>
       <r>   -7.9829    1.0000 </r>
       <r>   -7.9828    1.0000 </r>
       <r>   -7.8792    1.0000 </r>
       <r>   -7.8689    1.0000 </r>
       <r>   -7.8688    1.0000 </r>
       <r>   -7.8022    1.0000 </r>
       <r>   -7.7706    1.0000 </r>
       <r>   -7.7705    1.0000 </r>
       <r>   -7.7171    1.0000 </r>
       <r>   -7.7168    1.0000 </r>
       <r>   -6.3187    1.0000 </r>
       <r>   -6.3185    1.0000 </r>
       <r>   -6.3104    1.0000 </r>
       <r>   -6.2302    1.0000 </r>
       <r>   -6.2301    1.0000 </r>
       <r>   -6.2115    1.0000 </r>
       <r>   -6.1140    1.0000 </r>
       <r>   -6.1137    1.0000 </r>
       <r>   -6.0971    1.0000 </r>
       <r>   -6.0562    1.0000 </r>
       <r>   -6.0077    1.0000 </r>
       <r>   -6.0073    1.0000 </r>
       <r>   -6.0000    1.0000 </r>
       <r>   -5.9666    1.0000 </r>
       <r>   -5.9189    1.0000 </r>
       <r>   -5.9189    1.0000 </r>
       <r>   -5.8790    1.0000 </r>
       <r>   -5.8790    1.0000 </r>
       <r>   -5.7485    1.0000 </r>
       <r>   -5.7484    1.0000 </r>
       <r>   -5.7150    1.0000 </r>
       <r>   -5.7149    1.0000 </r>
       <r>   -2.5653    0.0000 </r>
       <r>   -2.5653    0.0000 </r>
       <r>   -2.5344    0.0000 </r>
       <r>   -2.5344    0.0000 </r>
       <r>   -1.4411    0.0000 </r>
       <r>   -1.4331    0.0000 </r>
       <r>   -1.4328    0.0000 </r>
       <r>   -1.4210    0.0000 </r>
       <r>   -1.3607    0.0000 </r>
       <r>   -1.0736    0.0000 </r>
       <r>   -1.0732    0.0000 </r>
       <r>   -1.0683    0.0000 </r>
       <r>   -1.0493    0.0000 </r>
       <r>   -1.0492    0.0000 </r>
       <r>   -1.0424    0.0000 </r>
       <r>   -0.6805    0.0000 </r>
       <r>   -0.6802    0.0000 </r>
       <r>   -0.6633    0.0000 </r>
       <r>   -0.3184    0.0000 </r>
       <r>   -0.1598    0.0000 </r>
       <r>   -0.1466    0.0000 </r>
       <r>   -0.1463    0.0000 </r>
       <r>   -0.0422    0.0000 </r>
       <r>   -0.0421    0.0000 </r>
       <r>   -0.0390    0.0000 </r>
       <r>   -0.0390    0.0000 </r>
       <r>    0.0502    0.0000 </r>
       <r>    0.0508    0.0000 </r>
       <r>    0.2157    0.0000 </r>
       <r>    0.2905    0.0000 </r>
       <r>    0.2944    0.0000 </r>
       <r>    0.2946    0.0000 </r>
       <r>    0.3343    0.0000 </r>
       <r>    0.3706    0.0000 </r>
       <r>    0.3710    0.0000 </r>
       <r>    0.4286    0.0000 </r>
       <r>    0.4426    0.0000 </r>
       <r>    0.4427    0.0000 </r>
       <r>    0.4700    0.0000 </r>
       <r>    0.5043    0.0000 </r>
       <r>    0.5405    0.0000 </r>
       <r>    0.5408    0.0000 </r>
       <r>    0.5500    0.0000 </r>
       <r>    0.6987    0.0000 </r>
       <r>    0.6992    0.0000 </r>
       <r>    0.7217    0.0000 </r>
       <r>    0.7339    0.0000 </r>
       <r>    0.7349    0.0000 </r>
       <r>    0.8079    0.0000 </r>
       <r>    0.8092    0.0000 </r>
       <r>    0.8093    0.0000 </r>
       <r>    0.8425    0.0000 </r>
       <r>    0.8615    0.0000 </r>
       <r>    0.8780    0.0000 </r>
       <r>    0.9737    0.0000 </r>
      </set>
      <set comment="kpoint 2">
       <r>  -25.1765    1.0000 </r>
       <r>  -25.1760    1.0000 </r>
       <r>  -22.2587    1.0000 </r>
       <r>  -22.2586    1.0000 </r>
       <r>  -22.2568    1.0000 </r>
       <r>  -22.2567    1.0000 </r>
       <r>  -21.5638    1.0000 </r>
       <r>  -21.5313    1.0000 </r>
       <r>  -21.5309    1.0000 </r>
       <r>  -21.2530    1.0000 </r>
       <r>  -21.1861    1.0000 </r>
       <r>  -21.1860    1.0000 </r>
       <r>  -20.8389    1.0000 </r>
       <r>  -20.8005    1.0000 </r>
       <r>  -20.8001    1.0000 </r>
       <r>  -19.5253    1.0000 </r>
       <r>  -19.5252    1.0000 </r>
       <r>  -19.4652    1.0000 </r>
       <r>  -18.8451    1.0000 </r>
       <r>  -18.8449    1.0000 </r>
       <r>  -18.6157    1.0000 </r>
       <r>  -18.3119    1.0000 </r>
       <r>  -18.3117    1.0000 </r>
       <r>  -18.2936    1.0000 </r>
       <r>  -18.2933    1.0000 </r>
       <r>  -18.2717    1.0000 </r>
       <r>  -18.2717    1.0000 </r>
       <r>  -18.2707    1.0000 </r>
       <r>  -18.2671    1.0000 </r>
       <r>  -18.2670    1.0000 </r>
       <r>  -17.9164    1.0000 </r>
       <r>  -17.9160    1.0000 </r>
       <r>  -17.5904    1.0000 </r>
       <r>  -16.7509    1.0000 </r>
       <r>  -16.7502    1.0000 </r>
       <r>  -16.1612    1.0000 </r>
       <r>  -16.1594    1.0000 </r>
       <r>  -15.7719    1.0000 </r>
       <r>  -15.0066    1.0000 </r>
       <r>  -15.0040    1.0000 </r>
       <r>  -14.9626    1.0000 </r>
       <r>  -14.9593    1.0000 </r>
       <r>  -14.8289    1.0000 </r>
       <r>  -14.8014    1.0000 </r>
       <r>  -14.8013    1.0000 </r>
       <r>  -14.8007    1.0000 </r>
       <r>  -14.7037    1.0000 </r>
       <r>  -14.7037    1.0000 </r>
       <r>  -14.5250    1.0000 </r>
       <r>  -14.5243    1.0000 </r>
       <r>  -13.9907    1.0000 </r>
       <r>  -13.9869    1.0000 </r>
       <r>  -13.9472    1.0000 </r>
       <r>  -13.7508    1.0000 </r>
       <r>  -13.7505    1.0000 </r>
       <r>  -13.1064    1.0000 </r>
       <r>  -13.1021    1.0000 </r>
       <r>  -13.0976    1.0000 </r>
       <r>  -13.0813    1.0000 </r>
       <r>  -12.7958    1.0000 </r>
       <r>  -12.7955    1.0000 </r>
       <r>  -12.5050    1.0000 </r>
       <r>  -12.2950    1.0000 </r>
       <r>  -12.2932    1.0000 </r>
       <r>  -11.5716    1.0000 </r>
       <r>  -11.4598    1.0000 </r>
       <r>  -11.4564    1.0000 </r>
       <r>  -11.1593    1.0000 </r>
       <r>  -11.1448    1.0000 </r>
       <r>  -11.1443    1.0000 </r>
       <r>  -11.1400    1.0000 </r>
       <r>  -11.1398    1.0000 </r>
       <r>  -11.0423    1.0000 </r>
       <r>  -11.0234    1.0000 </r>
       <r>  -10.8300    1.0000 </r>
       <r>  -10.8299    1.0000 </r>
       <r>  -10.8140    1.0000 </r>
       <r>  -10.8139    1.0000 </r>
       <r>  -10.6992    1.0000 </r>
       <r>  -10.6589    1.0000 </r>
       <r>  -10.6452    1.0000 </r>
       <r>  -10.6387    1.0000 </r>
       <r>  -10.5597    1.0000 </r>
       <r>  -10.5594    1.0000 </r>
       <r>  -10.4782    1.0000 </r>
       <r>  -10.4776    1.0000 </r>
       <r>  -10.3823    1.0000 </r>
       <r>  -10.0165    1.0000 </r>
       <r>  -10.0163    1.0000 </r>
       <r>   -9.9854    1.0000 </r>
       <r>   -9.9854    1.0000 </r>
       <r>   -9.9828    1.0000 </r>
       <r>   -9.9825    1.0000 </r>
       <r>   -9.9816    1.0000 </r>
       <r>   -9.9324    1.0000 </r>
       <r>   -9.9269    1.0000 </r>
       <r>   -9.7937    1.0000 </r>
       <r>   -9.7862    1.0000 </r>
       <r>   -9.7286    1.0000 </r>
       <r>   -9.3108    1.0000 </r>
       <r>   -9.3107    1.0000 </r>
       <r>   -9.2168    1.0000 </r>
       <r>   -9.2166    1.0000 </r>
       <r>   -9.0720    1.0000 </r>
       <r>   -9.0711    1.0000 </r>
       <r>   -8.8794    1.0000 </r>
       <r>   -8.8087    1.0000 </r>
       <r>   -8.8083    1.0000 </r>
       <r>   -8.7853    1.0000 </r>
       <r>   -8.6641    1.0000 </r>
       <r>   -8.5705    1.0000 </r>
       <r>   -8.4332    1.0000 </r>
       <r>   -8.4328    1.0000 </r>
       <r>   -8.2800    1.0000 </r>
       <r>   -8.2796    1.0000 </r>
       <r>   -8.2741    1.0000 </r>
       <r>   -8.2738    1.0000 </r>
       <r>   -8.1067    1.0000 </r>
       <r>   -8.1067    1.0000 </r>
       <r>   -8.0488    1.0000 </r>
       <r>   -7.9898    1.0000 </r>
       <r>   -7.9829    1.0000 </r>
       <r>   -7.9805    1.0000 </r>
       <r>   -7.8793    1.0000 </r>
       <r>   -7.8688    1.0000 </r>
       <r>   -7.8685    1.0000 </r>
       <r>   -7.8021    1.0000 </r>
       <r>   -7.7707    1.0000 </r>
       <r>   -7.7705    1.0000 </r>
       <r>   -7.7172    1.0000 </r>
       <r>   -7.7169    1.0000 </r>
       <r>   -6.3187    1.0000 </r>
       <r>   -6.3185    1.0000 </r>
       <r>   -6.3104    1.0000 </r>
       <r>   -6.2302    1.0000 </r>
       <r>   -6.2301    1.0000 </r>
       <r>   -6.2115    1.0000 </r>
       <r>   -6.1140    1.0000 </r>
       <r>   -6.1136    1.0000 </r>
       <r>   -6.0971    1.0000 </r>
       <r>   -6.0562    1.0000 </r>
       <r>   -6.0076    1.0000 </r>
       <r>   -6.0073    1.0000 </r>
       <r>   -6.0002    1.0000 </r>
       <r>   -5.9667    1.0000 </r>
       <r>   -5.9189    1.0000 </r>
       <r>   -5.9188    1.0000 </r>
       <r>   -5.8791    1.0000 </r>
       <r>   -5.8790    1.0000 </r>
       <r>   -5.7485    1.0000 </r>
       <r>   -5.7484    1.0000 </r>
       <r>   -5.7150    1.0000 </r>
       <r>   -5.7149    1.0000 </r>
       <r>   -2.5653    0.0000 </r>
       <r>   -2.5652    0.0000 </r>
       <r>   -2.5344    0.0000 </r>
       <r>   -2.5344    0.0000 </r>
       <r>   -1.4411    0.0000 </r>
       <r>   -1.4331    0.0000 </r>
       <r>   -1.4328    0.0000 </r>
       <r>   -1.4209    0.0000 </r>
       <r>   -1.3607    0.0000 </r>
       <r>   -1.0736    0.0000 </r>
       <r>   -1.0732    0.0000 </r>
       <r>   -1.0683    0.0000 </r>
       <r>   -1.0493    0.0000 </r>
       <r>   -1.0492    0.0000 </r>
       <r>   -1.0424    0.0000 </r>
       <r>   -0.6805    0.0000 </r>
       <r>   -0.6802    0.0000 </r>
       <r>   -0.6633    0.0000 </r>
       <r>   -0.3183    0.0000 </r>
       <r>   -0.1633    0.0000 </r>
       <r>   -0.1464    0.0000 </r>
       <r>   -0.1430    0.0000 </r>
       <r>   -0.0423    0.0000 </r>
       <r>   -0.0422    0.0000 </r>
       <r>   -0.0390    0.0000 </r>
       <r>   -0.0389    0.0000 </r>
       <r>    0.0504    0.0000 </r>
       <r>    0.0509    0.0000 </r>
       <r>    0.2159    0.0000 </r>
       <r>    0.2900    0.0000 </r>
       <r>    0.2934    0.0000 </r>
       <r>    0.2942    0.0000 </r>
       <r>    0.3340    0.0000 </r>
       <r>    0.3702    0.0000 </r>
       <r>    0.3710    0.0000 </r>
       <r>    0.4292    0.0000 </r>
       <r>    0.4427    0.0000 </r>
       <r>    0.4431    0.0000 </r>
       <r>    0.4716    0.0000 </r>
       <r>    0.5048    0.0000 </r>
       <r>    0.5346    0.0000 </r>
       <r>    0.5410    0.0000 </r>
       <r>    0.5562    0.0000 </r>
       <r>    0.6973    0.0000 </r>
       <r>    0.6987    0.0000 </r>
       <r>    0.7232    0.0000 </r>
       <r>    0.7339    0.0000 </r>
       <r>    0.7348    0.0000 </r>
       <r>    0.8000    0.0000 </r>
       <r>    0.8091    0.0000 </r>
       <r>    0.8180    0.0000 </r>
       <r>    0.8429    0.0000 </r>
       <r>    0.8607    0.0000 </r>
       <r>    0.8781    0.0000 </r>
       <r>    0.9729    0.0000 </r>
      </set>
      <set comment="kpoint 3">
       <r>  -25.1765    1.0000 </r>
       <r>  -25.1760    1.0000 </r>
       <r>  -22.2587    1.0000 </r>
       <r>  -22.2586    1.0000 </r>
       <r>  -22.2568    1.0000 </r>
       <r>  -22.2567    1.0000 </r>
       <r>  -21.5636    1.0000 </r>
       <r>  -21.5314    1.0000 </r>
       <r>  -21.5309    1.0000 </r>
       <r>  -21.2526    1.0000 </r>
       <r>  -21.1864    1.0000 </r>
       <r>  -21.1860    1.0000 </r>
       <r>  -20.8387    1.0000 </r>
       <r>  -20.8006    1.0000 </r>
       <r>  -20.8002    1.0000 </r>
       <r>  -19.5253    1.0000 </r>
       <r>  -19.5250    1.0000 </r>
       <r>  -19.4655    1.0000 </r>
       <r>  -18.8451    1.0000 </r>
       <r>  -18.8440    1.0000 </r>
       <r>  -18.6171    1.0000 </r>
       <r>  -18.3119    1.0000 </r>
       <r>  -18.3111    1.0000 </r>
       <r>  -18.2936    1.0000 </r>
       <r>  -18.2933    1.0000 </r>
       <r>  -18.2717    1.0000 </r>
       <r>  -18.2717    1.0000 </r>
       <r>  -18.2707    1.0000 </r>
       <r>  -18.2672    1.0000 </r>
       <r>  -18.2671    1.0000 </r>
       <r>  -17.9164    1.0000 </r>
       <r>  -17.9147    1.0000 </r>
       <r>  -17.5922    1.0000 </r>
       <r>  -16.7509    1.0000 </r>
       <r>  -16.7478    1.0000 </r>
       <r>  -16.1665    1.0000 </r>
       <r>  -16.1594    1.0000 </r>
       <r>  -15.7663    1.0000 </r>
       <r>  -15.0066    1.0000 </r>
       <r>  -15.0040    1.0000 </r>
       <r>  -14.9718    1.0000 </r>
       <r>  -14.9593    1.0000 </r>
       <r>  -14.8224    1.0000 </r>
       <r>  -14.8014    1.0000 </r>
       <r>  -14.8013    1.0000 </r>
       <r>  -14.8007    1.0000 </r>
       <r>  -14.7037    1.0000 </r>
       <r>  -14.7036    1.0000 </r>
       <r>  -14.5250    1.0000 </r>
       <r>  -14.5220    1.0000 </r>
       <r>  -13.9995    1.0000 </r>
       <r>  -13.9869    1.0000 </r>
       <r>  -13.9395    1.0000 </r>
       <r>  -13.7512    1.0000 </r>
       <r>  -13.7505    1.0000 </r>
       <r>  -13.1064    1.0000 </r>
       <r>  -13.1021    1.0000 </r>
       <r>  -13.0975    1.0000 </r>
       <r>  -13.0814    1.0000 </r>
       <r>  -12.7957    1.0000 </r>
       <r>  -12.7949    1.0000 </r>
       <r>  -12.5092    1.0000 </r>
       <r>  -12.2950    1.0000 </r>
       <r>  -12.2880    1.0000 </r>
       <r>  -11.5817    1.0000 </r>
       <r>  -11.4599    1.0000 </r>
       <r>  -11.4475    1.0000 </r>
       <r>  -11.1593    1.0000 </r>
       <r>  -11.1449    1.0000 </r>
       <r>  -11.1443    1.0000 </r>
       <r>  -11.1403    1.0000 </r>
       <r>  -11.1395    1.0000 </r>
       <r>  -11.0422    1.0000 </r>
       <r>  -11.0235    1.0000 </r>
       <r>  -10.8312    1.0000 </r>
       <r>  -10.8307    1.0000 </r>
       <r>  -10.8135    1.0000 </r>
       <r>  -10.8130    1.0000 </r>
       <r>  -10.6989    1.0000 </r>
       <r>  -10.6588    1.0000 </r>
       <r>  -10.6454    1.0000 </r>
       <r>  -10.6388    1.0000 </r>
       <r>  -10.5596    1.0000 </r>
       <r>  -10.5594    1.0000 </r>
       <r>  -10.4796    1.0000 </r>
       <r>  -10.4777    1.0000 </r>
       <r>  -10.3799    1.0000 </r>
       <r>  -10.0170    1.0000 </r>
       <r>  -10.0163    1.0000 </r>
       <r>   -9.9855    1.0000 </r>
       <r>   -9.9854    1.0000 </r>
       <r>   -9.9828    1.0000 </r>
       <r>   -9.9825    1.0000 </r>
       <r>   -9.9816    1.0000 </r>
       <r>   -9.9324    1.0000 </r>
       <r>   -9.9269    1.0000 </r>
       <r>   -9.8093    1.0000 </r>
       <r>   -9.7861    1.0000 </r>
       <r>   -9.7121    1.0000 </r>
       <r>   -9.3108    1.0000 </r>
       <r>   -9.3104    1.0000 </r>
       <r>   -9.2174    1.0000 </r>
       <r>   -9.2166    1.0000 </r>
       <r>   -9.0748    1.0000 </r>
       <r>   -9.0713    1.0000 </r>
       <r>   -8.8784    1.0000 </r>
       <r>   -8.8085    1.0000 </r>
       <r>   -8.8081    1.0000 </r>
       <r>   -8.7854    1.0000 </r>
       <r>   -8.6653    1.0000 </r>
       <r>   -8.5685    1.0000 </r>
       <r>   -8.4332    1.0000 </r>
       <r>   -8.4328    1.0000 </r>
       <r>   -8.2800    1.0000 </r>
       <r>   -8.2785    1.0000 </r>
       <r>   -8.2753    1.0000 </r>
       <r>   -8.2740    1.0000 </r>
       <r>   -8.1065    1.0000 </r>
       <r>   -8.1062    1.0000 </r>
       <r>   -8.0501    1.0000 </r>
       <r>   -7.9935    1.0000 </r>
       <r>   -7.9831    1.0000 </r>
       <r>   -7.9768    1.0000 </r>
       <r>   -7.8796    1.0000 </r>
       <r>   -7.8688    1.0000 </r>
       <r>   -7.8677    1.0000 </r>
       <r>   -7.8015    1.0000 </r>
       <r>   -7.7710    1.0000 </r>
       <r>   -7.7705    1.0000 </r>
       <r>   -7.7174    1.0000 </r>
       <r>   -7.7169    1.0000 </r>
       <r>   -6.3187    1.0000 </r>
       <r>   -6.3184    1.0000 </r>
       <r>   -6.3104    1.0000 </r>
       <r>   -6.2302    1.0000 </r>
[...]
       <r>   -22.7445     0.0000     4.0000 </r>
       <r>   -22.6487     0.0000     4.0000 </r>
       <r>   -22.5528     0.0000     4.0000 </r>
       <r>   -22.4569     0.0000     4.0000 </r>
       <r>   -22.3610     0.0000     4.0000 </r>
       <r>   -22.2651    12.3339     5.1826 </r>
       <r>   -22.1692     0.0000    12.0000 </r>
       <r>   -22.0734     0.0000    12.0000 </r>
       <r>   -21.9775     0.0000    12.0000 </r>
       <r>   -21.8816     0.0000    12.0000 </r>
       <r>   -21.7857     0.0000    12.0000 </r>
       <r>   -21.6898     0.0000    12.0000 </r>
       <r>   -21.5939     0.0000    12.0000 </r>
       <r>   -21.4980    62.5755    18.0000 </r>
       <r>   -21.4022     0.0000    18.0000 </r>
       <r>   -21.3063     0.0000    18.0000 </r>
       <r>   -21.2104    27.0304    20.5918 </r>
       <r>   -21.1145    27.4420    24.0000 </r>
       <r>   -21.0186     0.0000    24.0000 </r>
       <r>   -20.9227     0.0000    24.0000 </r>
       <r>   -20.8269    12.1104    25.1612 </r>
       <r>   -20.7310    31.6108    30.0000 </r>
       <r>   -20.6351     0.0000    30.0000 </r>
       <r>   -20.5392     0.0000    30.0000 </r>
       <r>   -20.4433     0.0000    30.0000 </r>
       <r>   -20.3474     0.0000    30.0000 </r>
       <r>   -20.2516     0.0000    30.0000 </r>
       <r>   -20.1557     0.0000    30.0000 </r>
       <r>   -20.0598     0.0000    30.0000 </r>
       <r>   -19.9639     0.0000    30.0000 </r>
       <r>   -19.8680     0.0000    30.0000 </r>
       <r>   -19.7721     0.0000    30.0000 </r>
       <r>   -19.6762     0.0000    30.0000 </r>
       <r>   -19.5804     0.0000    30.0000 </r>
       <r>   -19.4845    50.9607    34.8863 </r>
       <r>   -19.3886     4.1491    36.0000 </r>
       <r>   -19.2927     0.0000    36.0000 </r>
       <r>   -19.1968     0.0000    36.0000 </r>
       <r>   -19.1009     0.0000    36.0000 </r>
       <r>   -19.0051     0.0000    36.0000 </r>
       <r>   -18.9092     0.0000    36.0000 </r>
       <r>   -18.8133    28.2072    38.7046 </r>
       <r>   -18.7174    16.5280    40.4519 </r>
       <r>   -18.6215     8.6877    41.7667 </r>
       <r>   -18.5256     0.0000    42.0000 </r>
       <r>   -18.4298     0.0000    42.0000 </r>
       <r>   -18.3339     0.0209    42.0020 </r>
       <r>   -18.2380   187.7053    59.9999 </r>
       <r>   -18.1421     0.0000    60.0000 </r>
       <r>   -18.0462     0.0000    60.0000 </r>
       <r>   -17.9503     0.0000    60.0000 </r>
       <r>   -17.8545    29.2923    62.8087 </r>
       <r>   -17.7586    11.9337    64.0777 </r>
       <r>   -17.6627     9.9421    65.2202 </r>
       <r>   -17.5668     6.9510    65.9999 </r>
       <r>   -17.4709     0.0000    66.0000 </r>
       <r>   -17.3750     0.0000    66.0000 </r>
       <r>   -17.2791     0.0000    66.0000 </r>
       <r>   -17.1833     0.0000    66.0000 </r>
       <r>   -17.0874     0.0000    66.0000 </r>
       <r>   -16.9915     0.0000    66.0000 </r>
       <r>   -16.8956     0.0000    66.0000 </r>
       <r>   -16.7997     0.0000    66.0000 </r>
       <r>   -16.7038    26.3955    68.5309 </r>
       <r>   -16.6080     3.6799    68.9862 </r>
       <r>   -16.5121     8.7275    69.9038 </r>
       <r>   -16.4162     6.6241    70.7019 </r>
       <r>   -16.3203     2.7871    71.2339 </r>
       <r>   -16.2244     2.6974    71.5586 </r>
       <r>   -16.1285    24.6824    74.0000 </r>
       <r>   -16.0327     0.0000    74.0000 </r>
       <r>   -15.9368     0.0000    74.0000 </r>
       <r>   -15.8409     0.0000    74.0000 </r>
       <r>   -15.7450     2.9437    74.2823 </r>
       <r>   -15.6491     2.6324    74.6191 </r>
       <r>   -15.5532     2.4231    74.8990 </r>
       <r>   -15.4574     6.7236    75.5782 </r>
       <r>   -15.3615     5.0382    76.1500 </r>
       <r>   -15.2656     7.0789    76.9122 </r>
       <r>   -15.1697     2.7224    77.2281 </r>
       <r>   -15.0738     2.4137    77.4982 </r>
       <r>   -14.9779    44.4205    81.8259 </r>
       <r>   -14.8820    21.4351    84.0000 </r>
       <r>   -14.7862    65.5274    90.2830 </r>
       <r>   -14.6903    55.8761    95.8577 </r>
       <r>   -14.5944     0.0000    96.0000 </r>
       <r>   -14.4985    25.0056    98.3976 </r>
       <r>   -14.4026     3.9466    98.8785 </r>
       <r>   -14.3067     8.7660    99.7742 </r>
       <r>   -14.2109     7.7262   100.6409 </r>
       <r>   -14.1150     3.8796   101.3057 </r>
       <r>   -14.0191     3.8616   101.7370 </r>
       <r>   -13.9232    25.7131   104.2659 </r>
       <r>   -13.8273     8.2053   105.1536 </r>
       <r>   -13.7314    45.1050   109.9924 </r>
       <r>   -13.6356     0.0000   110.0000 </r>
       <r>   -13.5397     0.0000   110.0000 </r>
       <r>   -13.4438     0.0000   110.0000 </r>
       <r>   -13.3479     0.0000   110.0000 </r>
       <r>   -13.2520     0.0000   110.0000 </r>
       <r>   -13.1561     0.0000   110.0000 </r>
       <r>   -13.0603    83.4261   117.9992 </r>
       <r>   -12.9644     0.0000   118.0000 </r>
       <r>   -12.8685     0.0000   118.0000 </r>
       <r>   -12.7726    27.6451   120.6507 </r>
       <r>   -12.6767    15.7537   122.3774 </r>
       <r>   -12.5808     7.5545   123.3923 </r>
       <r>   -12.4849     5.2101   123.9996 </r>
       <r>   -12.3891     0.0000   124.0000 </r>
       <r>   -12.2932    13.1020   125.2563 </r>
       <r>   -12.1973     3.5575   126.5746 </r>
       <r>   -12.1014     2.8789   126.9094 </r>
       <r>   -12.0055     7.5599   127.6916 </r>
       <r>   -11.9096     5.4744   128.3250 </r>
       <r>   -11.8138     6.7842   129.0841 </r>
       <r>   -11.7179     2.6078   129.3834 </r>
       <r>   -11.6220     2.6417   129.6866 </r>
       <r>   -11.5261     2.7796   130.0000 </r>
       <r>   -11.4302    23.3745   132.2412 </r>
       <r>   -11.3343     3.6462   132.6498 </r>
       <r>   -11.2385     9.4075   133.6354 </r>
       <r>   -11.1426    70.4877   140.5924 </r>
       <r>   -11.0467    13.2629   144.2427 </r>
       <r>   -10.9508    17.6554   148.0000 </r>
       <r>   -10.8549    14.0623   149.3484 </r>
       <r>   -10.7590    54.8923   156.0000 </r>
       <r>   -10.6632    28.2428   158.7080 </r>
       <r>   -10.5673    28.9148   164.3487 </r>
       <r>   -10.4714    49.3829   171.6035 </r>
       <r>   -10.3755     2.1495   172.2061 </r>
       <r>   -10.2796     5.6201   172.9061 </r>
       <r>   -10.1837    10.7619   174.0322 </r>
       <r>   -10.0878     9.1955   175.0818 </r>
       <r>    -9.9920    44.0338   179.3891 </r>
       <r>    -9.8961    53.1807   193.5346 </r>
       <r>    -9.8002     3.0798   193.8954 </r>
       <r>    -9.7043    17.1598   196.1844 </r>
       <r>    -9.6084     2.5110   196.4741 </r>
       <r>    -9.5125     2.7269   196.7616 </r>
       <r>    -9.4167     4.4477   197.2265 </r>
       <r>    -9.3208     8.4968   198.2818 </r>
       <r>    -9.2249    43.3326   204.8561 </r>
       <r>    -9.1290     3.9848   207.4493 </r>
       <r>    -9.0331    25.7221   210.0000 </r>
       <r>    -8.9372     0.0000   210.0000 </r>
       <r>    -8.8414     7.8098   210.7488 </r>
       <r>    -8.7455    80.4819   218.6504 </r>
       <r>    -8.6496    10.0350   219.9959 </r>
       <r>    -8.5537     3.6769   220.3526 </r>
       <r>    -8.4578     5.8216   221.0583 </r>
       <r>    -8.3619    56.4039   226.8431 </r>
       <r>    -8.2660    54.0887   232.2530 </r>
       <r>    -8.1702    13.6084   233.9052 </r>
       <r>    -8.0743    46.8707   238.6945 </r>
       <r>    -7.9784    39.5360   243.9611 </r>
       <r>    -7.8825    34.3849   247.6644 </r>
       <r>    -7.7866    36.9607   253.7450 </r>
       <r>    -7.6907    73.7757   261.9997 </r>
       <r>    -7.5949     0.0000   262.0000 </r>
       <r>    -7.4990     0.0000   262.0000 </r>
       <r>    -7.4031     0.0000   262.0000 </r>
       <r>    -7.3072     0.0000   262.0000 </r>
       <r>    -7.2113     0.0000   262.0000 </r>
       <r>    -7.1154     0.0000   262.0000 </r>
       <r>    -7.0196     0.0000   262.0000 </r>
       <r>    -6.9237     0.0000   262.0000 </r>
       <r>    -6.8278     0.0000   262.0000 </r>
       <r>    -6.7319     0.0000   262.0000 </r>
       <r>    -6.6360     0.0000   262.0000 </r>
       <r>    -6.5401     0.0000   262.0000 </r>
       <r>    -6.4443     0.0000   262.0000 </r>
       <r>    -6.3484     0.0003   262.0000 </r>
       <r>    -6.2525    62.6135   268.0037 </r>
       <r>    -6.1566    62.5373   274.0000 </r>
       <r>    -6.0607    63.9623   280.1330 </r>
       <r>    -5.9648    92.5609   289.7772 </r>
       <r>    -5.8689    80.5828   297.7266 </r>
       <r>    -5.7731     0.0058   298.0006 </r>
       <r>    -5.6772    83.4283   306.0000 </r>
       <r>    -5.5813     0.0000   306.0000 </r>
       <r>    -5.4854     0.0000   306.0000 </r>
       <r>    -5.3895     0.0000   306.0000 </r>
       <r>    -5.2936     0.0000   306.0000 </r>
       <r>    -5.1978     0.0000   306.0000 </r>
       <r>    -5.1019     0.0000   306.0000 </r>
       <r>    -5.0060     0.0000   306.0000 </r>
       <r>    -4.9101     0.0000   306.0000 </r>
       <r>    -4.8142     0.0000   306.0000 </r>
       <r>    -4.7183     0.0000   306.0000 </r>
       <r>    -4.6225     0.0000   306.0000 </r>
       <r>    -4.5266     0.0000   306.0000 </r>
       <r>    -4.4307     0.0000   306.0000 </r>
       <r>    -4.3348     0.0000   306.0000 </r>
       <r>    -4.2389     0.0000   306.0000 </r>
       <r>    -4.1430     0.0000   306.0000 </r>
       <r>    -4.0472     0.0000   306.0000 </r>
       <r>    -3.9513     0.0000   306.0000 </r>
       <r>    -3.8554     0.0000   306.0000 </r>
       <r>    -3.7595     0.0000   306.0000 </r>
       <r>    -3.6636     0.0000   306.0000 </r>
       <r>    -3.5677     0.0000   306.0000 </r>
       <r>    -3.4718     0.0000   306.0000 </r>
       <r>    -3.3760     0.0000   306.0000 </r>
       <r>    -3.2801     0.0000   306.0000 </r>
       <r>    -3.1842     0.0000   306.0000 </r>
       <r>    -3.0883     0.0000   306.0000 </r>
       <r>    -2.9924     0.0000   306.0000 </r>
       <r>    -2.8965     0.0000   306.0000 </r>
       <r>    -2.8007     0.0000   306.0000 </r>
       <r>    -2.7048     0.0000   306.0000 </r>
       <r>    -2.6089     0.0000   306.0000 </r>
       <r>    -2.5130    83.3843   313.9952 </r>
       <r>    -2.4171     0.0000   314.0000 </r>
       <r>    -2.3212     0.0000   314.0000 </r>
       <r>    -2.2254     0.0000   314.0000 </r>
       <r>    -2.1295     0.0000   314.0000 </r>
       <r>    -2.0336     0.0000   314.0000 </r>
       <r>    -1.9377     0.0000   314.0000 </r>
       <r>    -1.8418     0.0000   314.0000 </r>
       <r>    -1.7459     0.0000   314.0000 </r>
       <r>    -1.6501     0.0000   314.0000 </r>
       <r>    -1.5542     0.0000   314.0000 </r>
       <r>    -1.4583     0.1070   314.0103 </r>
       <r>    -1.3624   100.8467   323.6799 </r>
       <r>    -1.2665     0.0000   324.0000 </r>
       <r>    -1.1706     0.0000   324.0000 </r>
       <r>    -1.0747    21.2548   326.0380 </r>
       <r>    -0.9789    62.5728   336.0000 </r>
       <r>    -0.8830     0.0000   336.0000 </r>
       <r>    -0.7871     0.0000   336.0000 </r>
       <r>    -0.6912     2.5025   336.2399 </r>
       <r>    -0.5953    26.3609   342.0000 </r>
       <r>    -0.4994     0.0000   342.0000 </r>
       <r>    -0.4036     0.0000   342.0000 </r>
       <r>    -0.3077     6.5772   342.6306 </r>
       <r>    -0.2118    24.1487   345.4521 </r>
       <r>    -0.1159    28.3786   348.3215 </r>
       <r>    -0.0200    94.4783   357.4926 </r>
       <r>     0.0759    29.9248   360.6695 </r>
       <r>     0.1717    23.2054   363.1251 </r>
       <r>     0.2676    40.7342   367.5064 </r>
       <r>     0.3635    51.2261   373.4147 </r>
       <r>     0.4594    37.1609   379.6643 </r>
       <r>     0.5553    57.5269   386.0210 </r>
       <r>     0.6512    52.3732   391.7563 </r>
       <r>     0.7471    70.7580   399.5204 </r>
       <r>     0.8429    84.1165   409.2374 </r>
       <r>     0.9388    50.1213   415.4428 </r>
       <r>     1.0347     3.8216   416.0000 </r>
       <r>     1.1306     0.0000   416.0000 </r>
       <r>     1.2265     0.0000   416.0000 </r>
       <r>     1.3224     0.0000   416.0000 </r>
       <r>     1.4182     0.0000   416.0000 </r>
       <r>     1.5141     0.0000   416.0000 </r>
       <r>     1.6100     0.0000   416.0000 </r>
       <r>     1.7059     0.0000   416.0000 </r>
       <r>     1.8018     0.0000   416.0000 </r>
       <r>     1.8977     0.0000   416.0000 </r>
       <r>     1.9935     0.0000   416.0000 </r>
       <r>     2.0894     0.0000   416.0000 </r>
       <r>     2.1853     0.0000   416.0000 </r>
       <r>     2.2812     0.0000   416.0000 </r>
      </set>
     </set>
    </array>
   </total>
  </dos>
 </calculation>
 <structure name="finalpos" >
  <crystal>
   <varray name="basis" >
    <v>      29.51203517       0.00000000       0.00000000 </v>
    <v>     -14.75601758      25.55817217       0.00000000 </v>
    <v>       0.00000000       0.00000000      20.00000000 </v>
   </varray>
   <i name="volume">  15085.47352130 </i>
   <varray name="rec_basis" >
    <v>       0.03388448       0.01956321       0.00000000 </v>
    <v>       0.00000000       0.03912643       0.00000000 </v>
    <v>       0.00000000       0.00000000       0.05000000 </v>
   </varray>
  </crystal>
  <varray name="positions" >
   <v>       0.02731786       0.51365893       0.56268045 </v>
   <v>       0.02730145       0.51365072       0.44206099 </v>
   <v>       0.35904880       0.71809760       0.50198120 </v>
   <v>       0.35904880       0.64095120       0.50198120 </v>
   <v>       0.28190240       0.64095120       0.50198120 </v>
   <v>       0.38800441       0.61199559       0.50207353 </v>
   <v>       0.44296776       0.63903519       0.50213997 </v>
   <v>       0.47013810       0.61172491       0.50225622 </v>
   <v>       0.44321679       0.55678321       0.50231291 </v>
   <v>       0.38827509       0.52986190       0.50225622 </v>
   <v>       0.36096481       0.55703224       0.50213997 </v>
   <v>       0.38800441       0.77600882       0.50207353 </v>
   <v>       0.44296776       0.80393257       0.50213997 </v>
   <v>       0.47013810       0.85841319       0.50225622 </v>
   <v>       0.44321679       0.88643357       0.50231291 </v>
   <v>       0.38827509       0.85841319       0.50225622 </v>
   <v>       0.36096481       0.80393257       0.50213997 </v>
   <v>       0.22399118       0.61199559       0.50207353 </v>
   <v>       0.19606743       0.63903519       0.50213997 </v>
   <v>       0.14158681       0.61172491       0.50225622 </v>
   <v>       0.11356643       0.55678321       0.50231291 </v>
   <v>       0.14158681       0.52986190       0.50225622 </v>
   <v>       0.19606743       0.55703224       0.50213997 </v>
   <v>       0.64095104       0.28190207       0.50198456 </v>
   <v>       0.64095104       0.35904896       0.50198456 </v>
   <v>       0.71809793       0.35904896       0.50198456 </v>
   <v>       0.61199513       0.38800487       0.50208999 </v>
   <v>       0.55703199       0.36096595       0.50216375 </v>
   <v>       0.52986151       0.38827587       0.50229000 </v>
   <v>       0.55678258       0.44321742       0.50234923 </v>
   <v>       0.61172413       0.47013849       0.50229000 </v>
   <v>       0.63903405       0.44296801       0.50216375 </v>
   <v>       0.61199513       0.22399026       0.50208999 </v>
   <v>       0.55703199       0.19606605       0.50216375 </v>
   <v>       0.52986151       0.14158565       0.50229000 </v>
   <v>       0.55678258       0.11356516       0.50234923 </v>
   <v>       0.61172413       0.14158565       0.50229000 </v>
   <v>       0.63903405       0.19606605       0.50216375 </v>
   <v>       0.77600974       0.38800487       0.50208999 </v>
   <v>       0.80393395       0.36096595       0.50216375 </v>
   <v>       0.85841435       0.38827587       0.50229000 </v>
   <v>       0.88643484       0.44321742       0.50234923 </v>
   <v>       0.85841435       0.47013849       0.50229000 </v>
   <v>       0.80393395       0.44296801       0.50216375 </v>
   <v>       0.51365101       0.48634899       0.56269251 </v>
   <v>       0.48634107       0.51365893       0.56268045 </v>
   <v>       0.47234691       0.52765309       0.50236522 </v>
   <v>       0.52765269       0.47234731       0.50238895 </v>
   <v>       0.51365101       0.02730202       0.56269251 </v>
   <v>       0.48634107       0.97268214       0.56268045 </v>
   <v>       0.47234691       0.94469383       0.50236522 </v>
   <v>       0.52765269       0.05530538       0.50238895 </v>
   <v>       0.97269798       0.48634899       0.56269251 </v>
   <v>       0.05530617       0.52765309       0.50236522 </v>
   <v>       0.94469462       0.47234731       0.50238895 </v>
   <v>       0.48634928       0.51365072       0.44206099 </v>
   <v>       0.51365822       0.48634178       0.44207300 </v>
   <v>       0.48634928       0.97269855       0.44206099 </v>
   <v>       0.51365822       0.02731644       0.44207300 </v>
   <v>       0.97268356       0.48634178       0.44207300 </v>
   <v>       0.51283530       0.87982882       0.50228592 </v>
   <v>       0.46386011       0.78220320       0.50209859 </v>
   <v>       0.36699352       0.87982882       0.50228592 </v>
   <v>       0.31834308       0.78220320       0.50209859 </v>
   <v>       0.21779680       0.68165692       0.50209859 </v>
   <v>       0.12017118       0.63300648       0.50228592 </v>
   <v>       0.21779680       0.53613989       0.50209859 </v>
   <v>       0.12017118       0.48716470       0.50228592 </v>
   <v>       0.31834308       0.53613989       0.50209859 </v>
   <v>       0.36699352       0.48716470       0.50228592 </v>
   <v>       0.51283530       0.63300648       0.50228592 </v>
   <v>       0.46386011       0.68165692       0.50209859 </v>
   <v>       0.48716444       0.12017085       0.50232210 </v>
   <v>       0.53614036       0.21779602       0.50211887 </v>
   <v>       0.63300641       0.12017085       0.50232210 </v>
   <v>       0.68165565       0.21779602       0.50211887 </v>
   <v>       0.78220398       0.31834435       0.50211887 </v>
   <v>       0.87982915       0.36699359       0.50232210 </v>
   <v>       0.78220398       0.46385964       0.50211887 </v>
   <v>       0.87982915       0.51283556       0.50232210 </v>
   <v>       0.68165565       0.46385964       0.50211887 </v>
   <v>       0.63300641       0.51283556       0.50232210 </v>
   <v>       0.48716444       0.36699359       0.50232210 </v>
   <v>       0.53614036       0.31834435       0.50211887 </v>
   <v>       0.47568188       0.52431812       0.60996020 </v>
   <v>       0.52430337       0.47569663       0.60998180 </v>
   <v>       0.47568188       0.95136375       0.60996020 </v>
   <v>       0.52430337       0.04860674       0.60998180 </v>
   <v>       0.04863625       0.52431812       0.60996020 </v>
   <v>       0.95139326       0.47569663       0.60998180 </v>
   <v>       0.47569193       0.52430807       0.39477457 </v>
   <v>       0.52432195       0.47567805       0.39479612 </v>
   <v>       0.47569193       0.95138386       0.39477457 </v>
   <v>       0.52432195       0.04864390       0.39479612 </v>
   <v>       0.04861614       0.52430807       0.39477457 </v>
   <v>       0.95135610       0.47567805       0.39479612 </v>
   <v>       0.38709220       0.69354610       0.50196735 </v>
   <v>       0.30645390       0.61290780       0.50196735 </v>
   <v>       0.30645390       0.69354610       0.50196735 </v>
   <v>       0.61290775       0.30645387       0.50196869 </v>
   <v>       0.69354613       0.38709225       0.50196869 </v>
   <v>       0.69354613       0.30645387       0.50196869 </v>
  </varray>
 </structure>
</modeling>
