<?xml version="1.0" encoding="ISO-8859-1"?>
<modeling>
 <generator>
  <i name="program" type="string">vasp </i>
  <i name="version" type="string">5.4.4.18Apr17-6-g9f103f2a35  </i>
  <i name="subversion" type="string">(build Jun 07 2020 16:50:00) complex            parallel </i>
  <i name="platform" type="string">LinuxIFC </i>
  <i name="date" type="string">2023 02 20 </i>
  <i name="time" type="string">21:26:10 </i>
 </generator>
 <incar>
  <i type="string" name="SYSTEM">Simulation for cell shape cell volume r</i>
  <i type="int" name="ISTART">     1</i>
  <i type="string" name="PREC">high</i>
  <i type="string" name="ALGO">48</i>
  <i type="int" name="ICHARG">    11</i>
  <i type="int" name="NELM">   200</i>
  <i type="int" name="IBRION">    -1</i>
  <i name="EDIFF">      0.00001000</i>
  <i name="EDIFFG">     -0.01000000</i>
  <i type="int" name="NSW">     0</i>
  <i type="int" name="ISIF">     2</i>
  <i name="ENCUT">    500.00000000</i>
  <i name="POTIM">      0.30000000</i>
  <i type="string" name="LREAL">A</i>
  <i type="int" name="ISMEAR">     0</i>
  <i name="SIGMA">      0.01000000</i>
  <i type="int" name="NWRITE">     0</i>
  <i type="logical" name="LWAVE"> F  </i>
  <i type="logical" name="LCHARG"> F  </i>
  <v type="int" name="KPOINT_BSE">    -1     0     0     0</v>
  <i type="int" name="NELM">   200</i>
  <i type="string" name="GGA">PE</i>
 </incar>
 <structure name="primitive_cell" >
  <crystal>
   <varray name="basis" >
    <v>      29.90455386       0.05410510       0.00000000 </v>
    <v>     -14.90545046      25.90184371       0.00000000 </v>
    <v>       0.00000000       0.00000000      20.00000000 </v>
   </varray>
   <i name="volume">  15507.79082191 </i>
   <varray name="rec_basis" >
    <v>       0.03340494       0.01922318       0.00000000 </v>
    <v>      -0.00006978       0.03856714       0.00000000 </v>
    <v>       0.00000000       0.00000000       0.05000000 </v>
   </varray>
  </crystal>
  <varray name="positions" >
   <v>       0.05618995      -0.47320245       0.38371962 </v>
   <v>       0.08792735      -0.42745381       0.37257200 </v>
   <v>       0.04053926       0.49109751       0.34253534 </v>
   <v>       0.03361100      -0.48650170       0.45158557 </v>
   <v>      -0.01984446       0.48426692       0.45451931 </v>
   <v>       0.06496194      -0.46741615      -0.49121483 </v>
   <v>      -0.04163689       0.47185405       0.40800582 </v>
   <v>       0.12872689      -0.49198946       0.43987919 </v>
   <v>       0.12188655      -0.43906536      -0.49244948 </v>
   <v>       0.14941507      -0.45692884       0.46969655 </v>
   <v>      -0.04603475       0.47265879      -0.48421694 </v>
   <v>       0.03877203      -0.47897165      -0.42994055 </v>
   <v>       0.14959898      -0.39431022      -0.45380562 </v>
   <v>      -0.01470960       0.49184660      -0.42701193 </v>
   <v>       0.20300289      -0.43056437       0.47011583 </v>
   <v>       0.12887101      -0.37975410      -0.42424334 </v>
   <v>       0.06056403      -0.46652435      -0.38342711 </v>
   <v>       0.22358467      -0.44469836       0.43952204 </v>
   <v>      -0.10940972       0.38517940       0.44835283 </v>
   <v>      -0.10295658       0.44425845      -0.48342234 </v>
   <v>       0.20323744      -0.36778849      -0.45386852 </v>
   <v>       0.23097955      -0.38533415      -0.49195674 </v>
   <v>      -0.13037465       0.39969798       0.47747741 </v>
   <v>      -0.03743385       0.47878337      -0.35917408 </v>
   <v>      -0.13075032       0.46206961      -0.44607849 </v>
   <v>       0.22401112      -0.33328486      -0.42312812 </v>
   <v>      -0.11029893       0.49694913      -0.41588725 </v>
   <v>      -0.02196688      -0.48537269      -0.31824961 </v>
   <v>      -0.06918814       0.43307613      -0.34784329 </v>
   <v>       0.28800584      -0.35697792      -0.49219010 </v>
   <v>      -0.18399582       0.37341685       0.47642313 </v>
   <v>       0.29459459      -0.42570720      -0.49271928 </v>
   <v>       0.29449746      -0.28170742      -0.49233874 </v>
   <v>      -0.20452759       0.33908093       0.44531712 </v>
   <v>      -0.18432002       0.43595026      -0.44763780 </v>
   <v>       0.31558233      -0.38363095      -0.49251479 </v>
   <v>       0.31551222      -0.30287497      -0.49227996 </v>
   <v>      -0.21201253       0.39102624      -0.48620744 </v>
   <v>      -0.20512630       0.45006571      -0.41747759 </v>
   <v>       0.34745301      -0.21111975       0.43644739 </v>
   <v>       0.36964996      -0.35721615      -0.49279754 </v>
   <v>       0.36955939      -0.27547481      -0.49244303 </v>
   <v>      -0.26901017       0.36307138      -0.48736150 </v>
   <v>       0.34631441      -0.44527611      -0.42512039 </v>
   <v>       0.39615107      -0.30311349      -0.49263333 </v>
   <v>      -0.27489195       0.43219366      -0.48672393 </v>
   <v>      -0.27619928       0.28754193      -0.48533177 </v>
   <v>       0.38154434      -0.19045690       0.46789657 </v>
   <v>       0.39810011      -0.38596979      -0.49350555 </v>
   <v>       0.39809034      -0.21840504      -0.49260520 </v>
   <v>      -0.29618968       0.39012082      -0.48694155 </v>
   <v>      -0.29690265       0.30897807      -0.48770087 </v>
   <v>       0.38073560      -0.43144775      -0.45605568 </v>
   <v>       0.43820438      -0.28211439      -0.49286189 </v>
   <v>       0.40874691      -0.13681361       0.46697541 </v>
   <v>       0.39511757      -0.11607923       0.43574052 </v>
   <v>       0.44318197      -0.36867491       0.46821039 </v>
   <v>      -0.32589279       0.45207576       0.44460115 </v>
   <v>       0.45714583      -0.33383458       0.43804562 </v>
   <v>      -0.32880768       0.21742701       0.44278254 </v>
   <v>       0.40735033      -0.45862090      -0.45684676 </v>
   <v>       0.44255482      -0.19067501      -0.45336546 </v>
   <v>      -0.35023816       0.36411202      -0.48654682 </v>
   <v>      -0.35097531       0.28195929      -0.48711073 </v>
   <v>       0.39296990      -0.49401044      -0.42770075 </v>
   <v>       0.45573851      -0.21147434      -0.42154822 </v>
   <v>       0.46964202      -0.39597243       0.46691834 </v>
   <v>      -0.36046721       0.43857360       0.47514953 </v>
   <v>      -0.37714769       0.31000118      -0.48638547 </v>
   <v>      -0.36302225       0.19685985       0.47403838 </v>
   <v>       0.45202747      -0.44147900      -0.49572842 </v>
   <v>       0.45322710      -0.10932139      -0.49386877 </v>
   <v>       0.44175340      -0.48621777       0.36800281 </v>
   <v>      -0.37830340       0.39322064      -0.48698340 </v>
   <v>       0.46950293      -0.13700674      -0.45360326 </v>
   <v>      -0.37979212       0.22492490      -0.48717949 </v>
   <v>      -0.49538968      -0.38150829       0.43689368 </v>
   <v>      -0.37205169      -0.49865122       0.44565457 </v>
   <v>      -0.38680919       0.46602955       0.47503951 </v>
   <v>      -0.41916386       0.28935546      -0.48850773 </v>
   <v>      -0.37599334       0.12215799       0.44398805 </v>
   <v>      -0.38991733       0.14320577       0.47404655 </v>
   <v>      -0.49640358      -0.07699537       0.37316640 </v>
   <v>       0.48053766      -0.47007031      -0.49482302 </v>
   <v>       0.48750651      -0.47169364       0.38017437 </v>
   <v>      -0.49586982      -0.11619959      -0.42309333 </v>
   <v>       0.49001648      -0.04452479       0.38194141 </v>
   <v>       0.48220584      -0.05232168      -0.49312667 </v>
   <v>       0.47115142      -0.02888701       0.33894800 </v>
   <v>      -0.42362489       0.37627838      -0.44934666 </v>
   <v>      -0.42459411       0.19726298      -0.44843302 </v>
   <v>       0.49825183      -0.02119164       0.44927235 </v>
   <v>      -0.49991425      -0.48194725       0.44801331 </v>
   <v>       0.47897091      -0.47608213      -0.38708488 </v>
   <v>      -0.43797922       0.34150949      -0.41894426 </v>
   <v>      -0.43805670       0.21815646      -0.41727523 </v>
   <v>       0.48158871      -0.04751109      -0.38535294 </v>
   <v>      -0.47622002      -0.45031682       0.34006920 </v>
   <v>       0.49166536      -0.48524107      -0.43358988 </v>
   <v>       0.49416684      -0.02590917      -0.43201155 </v>
   <v>      -0.43167765       0.44926223      -0.48662201 </v>
   <v>      -0.43420256       0.11581381      -0.48644660 </v>
   <v>      -0.44983100       0.40381062      -0.44899306 </v>
   <v>      -0.45129718       0.14361987      -0.44781277 </v>
   <v>      -0.47594905       0.03241992       0.45157838 </v>
   <v>      -0.47087447       0.49343026       0.45089063 </v>
   <v>      -0.41802344       0.08324265      -0.35267967 </v>
   <v>      -0.42066810       0.49452626      -0.35108669 </v>
   <v>      -0.45817303       0.48426968       0.40438890 </v>
   <v>      -0.47926182       0.49019049      -0.43070226 </v>
   <v>      -0.46631819       0.05403816       0.40487914 </v>
   <v>      -0.45984527       0.47818039      -0.48788471 </v>
   <v>      -0.47806944       0.02769031      -0.42968276 </v>
   <v>      -0.46227939       0.05881993      -0.48728029 </v>
   <v>      -0.48498911       0.38963128      -0.41943781 </v>
   <v>      -0.48590484       0.12312889      -0.41716156 </v>
   <v>       0.49747825       0.45909670      -0.32243778 </v>
   <v>      -0.49880481       0.03569768      -0.32012321 </v>
   <v>      -0.46383961       0.05103197      -0.36229585 </v>
   <v>      -0.46644333       0.48014589      -0.36289590 </v>
  </varray>
 </structure>
 <varray name="primitive_index" >
  <v type="int" >        1 </v>
  <v type="int" >       73 </v>
  <v type="int" >       74 </v>
  <v type="int" >        9 </v>
  <v type="int" >       72 </v>
  <v type="int" >        8 </v>
  <v type="int" >      120 </v>
  <v type="int" >       87 </v>
  <v type="int" >       11 </v>
  <v type="int" >       12 </v>
  <v type="int" >       64 </v>
  <v type="int" >        7 </v>
  <v type="int" >       10 </v>
  <v type="int" >       65 </v>
  <v type="int" >       14 </v>
  <v type="int" >       86 </v>
  <v type="int" >       85 </v>
  <v type="int" >       89 </v>
  <v type="int" >      101 </v>
  <v type="int" >       49 </v>
  <v type="int" >       13 </v>
  <v type="int" >       27 </v>
  <v type="int" >       48 </v>
  <v type="int" >        4 </v>
  <v type="int" >       50 </v>
  <v type="int" >       88 </v>
  <v type="int" >      103 </v>
  <v type="int" >       80 </v>
  <v type="int" >       79 </v>
  <v type="int" >       15 </v>
  <v type="int" >       47 </v>
  <v type="int" >       99 </v>
  <v type="int" >       98 </v>
  <v type="int" >      102 </v>
  <v type="int" >       51 </v>
  <v type="int" >       20 </v>
  <v type="int" >       16 </v>
  <v type="int" >       46 </v>
  <v type="int" >      104 </v>
  <v type="int" >       97 </v>
  <v type="int" >       19 </v>
  <v type="int" >       17 </v>
  <v type="int" >       34 </v>
  <v type="int" >       90 </v>
  <v type="int" >       18 </v>
  <v type="int" >      114 </v>
  <v type="int" >      113 </v>
  <v type="int" >       22 </v>
  <v type="int" >       28 </v>
  <v type="int" >       21 </v>
  <v type="int" >       39 </v>
  <v type="int" >       35 </v>
  <v type="int" >       29 </v>
  <v type="int" >      100 </v>
  <v type="int" >       23 </v>
  <v type="int" >       96 </v>
  <v type="int" >       33 </v>
  <v type="int" >      105 </v>
  <v type="int" >       92 </v>
  <v type="int" >      112 </v>
  <v type="int" >       30 </v>
  <v type="int" >       26 </v>
  <v type="int" >       38 </v>
  <v type="int" >       36 </v>
  <v type="int" >       91 </v>
  <v type="int" >       94 </v>
  <v type="int" >       32 </v>
  <v type="int" >       53 </v>
  <v type="int" >       37 </v>
  <v type="int" >       41 </v>
  <v type="int" >       31 </v>
  <v type="int" >       24 </v>
  <v type="int" >       83 </v>
  <v type="int" >       52 </v>
  <v type="int" >       25 </v>
  <v type="int" >       40 </v>
  <v type="int" >       93 </v>
  <v type="int" >      106 </v>
  <v type="int" >       54 </v>
  <v type="int" >      115 </v>
  <v type="int" >      111 </v>
  <v type="int" >       42 </v>
  <v type="int" >       81 </v>
  <v type="int" >       69 </v>
  <v type="int" >        6 </v>
  <v type="int" >       95 </v>
  <v type="int" >        5 </v>
  <v type="int" >       66 </v>
  <v type="int" >       82 </v>
  <v type="int" >       57 </v>
  <v type="int" >       45 </v>
  <v type="int" >       67 </v>
  <v type="int" >       70 </v>
  <v type="int" >      117 </v>
  <v type="int" >      107 </v>
  <v type="int" >      109 </v>
  <v type="int" >      116 </v>
  <v type="int" >       84 </v>
  <v type="int" >       63 </v>
  <v type="int" >       60 </v>
  <v type="int" >       55 </v>
  <v type="int" >       43 </v>
  <v type="int" >       56 </v>
  <v type="int" >       44 </v>
  <v type="int" >       68 </v>
  <v type="int" >       71 </v>
  <v type="int" >       76 </v>
  <v type="int" >       77 </v>
  <v type="int" >      119 </v>
  <v type="int" >       62 </v>
  <v type="int" >      118 </v>
  <v type="int" >       61 </v>
  <v type="int" >       59 </v>
  <v type="int" >       58 </v>
  <v type="int" >      108 </v>
  <v type="int" >      110 </v>
  <v type="int" >       78 </v>
  <v type="int" >       75 </v>
  <v type="int" >        2 </v>
  <v type="int" >        3 </v>
 </varray>
 <kpoints>
  <generation param="listgenerated">
   <i name="divisions" type="int">      20 </i>
   <v>       0.00000000       0.00000000       0.00000000 </v>
   <v>       0.50000000       0.00000000       0.00000000 </v>
   <v>       0.33333333       0.33333333       0.00000000 </v>
   <v>       0.00000000       0.00000000       0.00000000 </v>
  </generation>
  <varray name="kpointlist" >
   <v>       0.00000000       0.00000000       0.00000000 </v>
   <v>       0.02631579       0.00000000       0.00000000 </v>
   <v>       0.05263158       0.00000000       0.00000000 </v>
   <v>       0.07894737       0.00000000       0.00000000 </v>
   <v>       0.10526316       0.00000000       0.00000000 </v>
   <v>       0.13157895       0.00000000       0.00000000 </v>
   <v>       0.15789474       0.00000000       0.00000000 </v>
   <v>       0.18421053       0.00000000       0.00000000 </v>
   <v>       0.21052632       0.00000000       0.00000000 </v>
   <v>       0.23684211       0.00000000       0.00000000 </v>
   <v>       0.26315789       0.00000000       0.00000000 </v>
   <v>       0.28947368       0.00000000       0.00000000 </v>
   <v>       0.31578947       0.00000000       0.00000000 </v>
   <v>       0.34210526       0.00000000       0.00000000 </v>
   <v>       0.36842105       0.00000000       0.00000000 </v>
   <v>       0.39473684       0.00000000       0.00000000 </v>
   <v>       0.42105263       0.00000000       0.00000000 </v>
   <v>       0.44736842       0.00000000       0.00000000 </v>
   <v>       0.47368421       0.00000000       0.00000000 </v>
   <v>       0.50000000       0.00000000       0.00000000 </v>
   <v>       0.50000000       0.00000000       0.00000000 </v>
   <v>       0.49122807       0.01754386       0.00000000 </v>
   <v>       0.48245614       0.03508772       0.00000000 </v>
   <v>       0.47368421       0.05263158       0.00000000 </v>
   <v>       0.46491228       0.07017544       0.00000000 </v>
   <v>       0.45614035       0.08771930       0.00000000 </v>
   <v>       0.44736842       0.10526316       0.00000000 </v>
   <v>       0.43859649       0.12280702       0.00000000 </v>
   <v>       0.42982456       0.14035088       0.00000000 </v>
   <v>       0.42105263       0.15789474       0.00000000 </v>
   <v>       0.41228070       0.17543860       0.00000000 </v>
   <v>       0.40350877       0.19298246       0.00000000 </v>
   <v>       0.39473684       0.21052632       0.00000000 </v>
   <v>       0.38596491       0.22807018       0.00000000 </v>
   <v>       0.37719298       0.24561404       0.00000000 </v>
   <v>       0.36842105       0.26315789       0.00000000 </v>
   <v>       0.35964912       0.28070175       0.00000000 </v>
   <v>       0.35087719       0.29824561       0.00000000 </v>
   <v>       0.34210526       0.31578947       0.00000000 </v>
   <v>       0.33333333       0.33333333       0.00000000 </v>
   <v>       0.33333333       0.33333333       0.00000000 </v>
   <v>       0.31578947       0.31578947       0.00000000 </v>
   <v>       0.29824561       0.29824561       0.00000000 </v>
   <v>       0.28070175       0.28070175       0.00000000 </v>
   <v>       0.26315789       0.26315789       0.00000000 </v>
   <v>       0.24561404       0.24561404       0.00000000 </v>
   <v>       0.22807018       0.22807018       0.00000000 </v>
   <v>       0.21052632       0.21052632       0.00000000 </v>
   <v>       0.19298246       0.19298246       0.00000000 </v>
   <v>       0.17543860       0.17543860       0.00000000 </v>
   <v>       0.15789474       0.15789474       0.00000000 </v>
   <v>       0.14035088       0.14035088       0.00000000 </v>
   <v>       0.12280702       0.12280702       0.00000000 </v>
   <v>       0.10526316       0.10526316       0.00000000 </v>
   <v>       0.08771930       0.08771930       0.00000000 </v>
   <v>       0.07017544       0.07017544       0.00000000 </v>
   <v>       0.05263158       0.05263158       0.00000000 </v>
   <v>       0.03508772       0.03508772       0.00000000 </v>
   <v>       0.01754386       0.01754386       0.00000000 </v>
   <v>       0.00000000       0.00000000       0.00000000 </v>
  </varray>
  <varray name="weights" >
   <v>       0.01666667 </v>
   <v>       0.01666667 </v>
   <v>       0.01666667 </v>
   <v>       0.01666667 </v>
   <v>       0.01666667 </v>
   <v>       0.01666667 </v>
   <v>       0.01666667 </v>
   <v>       0.01666667 </v>
   <v>       0.01666667 </v>
   <v>       0.01666667 </v>
   <v>       0.01666667 </v>
   <v>       0.01666667 </v>
   <v>       0.01666667 </v>
   <v>       0.01666667 </v>
   <v>       0.01666667 </v>
   <v>       0.01666667 </v>
   <v>       0.01666667 </v>
   <v>       0.01666667 </v>
   <v>       0.01666667 </v>
   <v>       0.01666667 </v>
   <v>       0.01666667 </v>
   <v>       0.01666667 </v>
   <v>       0.01666667 </v>
   <v>       0.01666667 </v>
   <v>       0.01666667 </v>
   <v>       0.01666667 </v>
   <v>       0.01666667 </v>
   <v>       0.01666667 </v>
   <v>       0.01666667 </v>
   <v>       0.01666667 </v>
   <v>       0.01666667 </v>
   <v>       0.01666667 </v>
   <v>       0.01666667 </v>
   <v>       0.01666667 </v>
   <v>       0.01666667 </v>
   <v>       0.01666667 </v>
   <v>       0.01666667 </v>
   <v>       0.01666667 </v>
   <v>       0.01666667 </v>
   <v>       0.01666667 </v>
   <v>       0.01666667 </v>
   <v>       0.01666667 </v>
   <v>       0.01666667 </v>
   <v>       0.01666667 </v>
   <v>       0.01666667 </v>
   <v>       0.01666667 </v>
   <v>       0.01666667 </v>
   <v>       0.01666667 </v>
   <v>       0.01666667 </v>
   <v>       0.01666667 </v>
   <v>       0.01666667 </v>
   <v>       0.01666667 </v>
   <v>       0.01666667 </v>
   <v>       0.01666667 </v>
   <v>       0.01666667 </v>
   <v>       0.01666667 </v>
   <v>       0.01666667 </v>
   <v>       0.01666667 </v>
   <v>       0.01666667 </v>
   <v>       0.01666667 </v>
  </varray>
 </kpoints>
 <parameters>
  <separator name="general" >
   <i type="string" name="SYSTEM">Simulation for cell shape cell volume r</i>
   <i type="logical" name="LCOMPAT"> F  </i>
  </separator>
  <separator name="electronic" >
   <i type="string" name="PREC">high</i>
   <i name="ENMAX">    500.00000000</i>
   <i name="ENAUG">    644.87300000</i>
   <i name="EDIFF">      0.00001000</i>
   <i type="int" name="IALGO">    38</i>
   <i type="int" name="IWAVPR">    10</i>
   <i type="int" name="NBANDS">   272</i>
   <i name="NELECT">    402.00000000</i>
   <i type="int" name="TURBO">     0</i>
   <i type="int" name="IRESTART">     0</i>
   <i type="int" name="NREBOOT">     0</i>
   <i type="int" name="NMIN">     0</i>
   <i name="EREF">      0.00000000</i>
   <separator name="electronic smearing" >
    <i type="int" name="ISMEAR">     0</i>
    <i name="SIGMA">      0.01000000</i>
    <i name="KSPACING">      0.50000000</i>
    <i type="logical" name="KGAMMA"> T  </i>
   </separator>
   <separator name="electronic projectors" >
    <i type="logical" name="LREAL"> T  </i>
    <v name="ROPT">     -0.00040000     -0.00040000     -0.00040000     -0.00040000</v>
    <i type="int" name="LMAXPAW">  -100</i>
    <i type="int" name="LMAXMIX">     2</i>
    <i type="logical" name="NLSPLINE"> F  </i>
   </separator>
   <separator name="electronic startup" >
    <i type="int" name="ISTART">     1</i>
    <i type="int" name="ICHARG">    11</i>
    <i type="int" name="INIWAV">     1</i>
   </separator>
   <separator name="electronic spin" >
    <i type="int" name="ISPIN">     1</i>
    <i type="logical" name="LNONCOLLINEAR"> F  </i>
    <v name="MAGMOM">      1.00000000      1.00000000      1.00000000      1.00000000      1.00000000      1.00000000      1.00000000      1.00000000      1.00000000      1.00000000      1.00000000      1.00000000      1.00000000      1.00000000      1.00000000      1.00000000      1.00000000      1.00000000      1.00000000      1.00000000
      1.00000000      1.00000000      1.00000000      1.00000000      1.00000000      1.00000000      1.00000000      1.00000000      1.00000000      1.00000000      1.00000000      1.00000000      1.00000000      1.00000000      1.00000000      1.00000000      1.00000000      1.00000000      1.00000000      1.00000000
      1.00000000      1.00000000      1.00000000      1.00000000      1.00000000      1.00000000      1.00000000      1.00000000      1.00000000      1.00000000      1.00000000      1.00000000      1.00000000      1.00000000      1.00000000      1.00000000      1.00000000      1.00000000      1.00000000      1.00000000
      1.00000000      1.00000000      1.00000000      1.00000000      1.00000000      1.00000000      1.00000000      1.00000000      1.00000000      1.00000000      1.00000000      1.00000000      1.00000000      1.00000000      1.00000000      1.00000000      1.00000000      1.00000000      1.00000000      1.00000000
      1.00000000      1.00000000      1.00000000      1.00000000      1.00000000      1.00000000      1.00000000      1.00000000      1.00000000      1.00000000      1.00000000      1.00000000      1.00000000      1.00000000      1.00000000      1.00000000      1.00000000      1.00000000      1.00000000      1.00000000
      1.00000000      1.00000000      1.00000000      1.00000000      1.00000000      1.00000000      1.00000000      1.00000000      1.00000000      1.00000000      1.00000000      1.00000000      1.00000000      1.00000000      1.00000000      1.00000000      1.00000000      1.00000000      1.00000000      1.00000000
</v>
    <i name="NUPDOWN">     -1.00000000</i>
    <i type="logical" name="LSORBIT"> F  </i>
    <v name="SAXIS">      0.00000000      0.00000000      1.00000000</v>
    <i type="logical" name="LSPIRAL"> F  </i>
    <v name="QSPIRAL">      0.00000000      0.00000000      0.00000000</v>
    <i type="logical" name="LZEROZ"> F  </i>
   </separator>
   <separator name="electronic exchange-correlation" >
    <i type="logical" name="LASPH"> F  </i>
    <i type="logical" name="LMETAGGA"> F  </i>
   </separator>
   <separator name="electronic convergence" >
    <i type="int" name="NELM">   200</i>
    <i type="int" name="NELMDL">     0</i>
    <i type="int" name="NELMIN">     2</i>
    <i name="ENINI">    500.00000000</i>
    <separator name="electronic convergence detail" >
     <i type="logical" name="LDIAG"> T  </i>
     <i type="logical" name="LSUBROT"> F  </i>
     <i name="WEIMIN">      0.00000000</i>
     <i name="EBREAK">      0.00000001</i>
     <i name="DEPER">      0.30000000</i>
     <i type="int" name="NRMM">     4</i>
     <i name="TIME">      0.40000000</i>
    </separator>
   </separator>
   <separator name="electronic mixer" >
    <i name="AMIX">      0.40000000</i>
    <i name="BMIX">      1.00000000</i>
    <i name="AMIN">      0.10000000</i>
    <i name="AMIX_MAG">      1.60000000</i>
    <i name="BMIX_MAG">      1.00000000</i>
    <separator name="electronic mixer details" >
     <i type="int" name="IMIX">     4</i>
     <i type="logical" name="MIXFIRST"> F  </i>
     <i type="int" name="MAXMIX">   -45</i>
     <i name="WC">    100.00000000</i>
     <i type="int" name="INIMIX">     1</i>
     <i type="int" name="MIXPRE">     1</i>
     <i type="int" name="MREMOVE">     5</i>
    </separator>
   </separator>
   <separator name="electronic dipolcorrection" >
    <i type="logical" name="LDIPOL"> F  </i>
    <i type="logical" name="LMONO"> F  </i>
    <i type="int" name="IDIPOL">     0</i>
    <i name="EPSILON">      1.00000000</i>
    <v name="DIPOL">   -100.00000000   -100.00000000   -100.00000000</v>
    <i name="EFIELD">      0.00000000</i>
   </separator>
  </separator>
  <separator name="grids" >
   <i type="int" name="NGX">   224</i>
   <i type="int" name="NGY">   224</i>
   <i type="int" name="NGZ">   150</i>
   <i type="int" name="NGXF">   336</i>
   <i type="int" name="NGYF">   336</i>
   <i type="int" name="NGZF">   224</i>
   <i type="logical" name="ADDGRID"> F  </i>
  </separator>
  <separator name="ionic" >
   <i type="int" name="NSW">     0</i>
   <i type="int" name="IBRION">    -1</i>
   <i type="int" name="MDALGO">     0</i>
   <i type="int" name="ISIF">     2</i>
   <i name="PSTRESS">      0.00000000</i>
   <i name="EDIFFG">     -0.01000000</i>
   <i type="int" name="NFREE">     0</i>
   <i name="POTIM">      0.30000000</i>
   <i name="SMASS">     -3.00000000</i>
   <i name="SCALEE">      1.00000000</i>
  </separator>
  <separator name="ionic md" >
   <i name="TEBEG">      0.00010000</i>
   <i name="TEEND">      0.00010000</i>
   <i type="int" name="NBLOCK">     1</i>
   <i type="int" name="KBLOCK">     1</i>
   <i type="int" name="NPACO">   256</i>
   <i name="APACO">     16.00000000</i>
  </separator>
  <separator name="symmetry" >
   <i type="int" name="ISYM">     2</i>
   <i name="SYMPREC">      0.00001000</i>
  </separator>
  <separator name="dos" >
   <i type="int" name="LORBIT">     0</i>
   <v name="RWIGS">     -1.00000000     -1.00000000     -1.00000000     -1.00000000</v>
   <i type="int" name="NEDOS">   301</i>
   <i name="EMIN">     10.00000000</i>
   <i name="EMAX">    -10.00000000</i>
   <i name="EFERMI">      0.00000000</i>
  </separator>
  <separator name="writing" >
   <i type="int" name="NWRITE">     0</i>
   <i type="logical" name="LWAVE"> F  </i>
   <i type="logical" name="LDOWNSAMPLE"> F  </i>
   <i type="logical" name="LCHARG"> F  </i>
   <i type="logical" name="LPARD"> F  </i>
   <i type="logical" name="LVTOT"> F  </i>
   <i type="logical" name="LVHAR"> F  </i>
   <i type="logical" name="LELF"> F  </i>
   <i type="logical" name="LOPTICS"> F  </i>
   <v name="STM">      0.00000000      0.00000000      0.00000000      0.00000000      0.00000000      0.00000000      0.00000000</v>
  </separator>
  <separator name="performance" >
   <i type="int" name="NPAR">    16</i>
   <i type="int" name="NSIM">     4</i>
   <i type="int" name="NBLK">    -1</i>
   <i type="logical" name="LPLANE"> T  </i>
   <i type="logical" name="LSCALAPACK"> T  </i>
   <i type="logical" name="LSCAAWARE"> F  </i>
   <i type="logical" name="LSCALU"> F  </i>
   <i type="logical" name="LASYNC"> F  </i>
   <i type="logical" name="LORBITALREAL"> F  </i>
  </separator>
  <separator name="miscellaneous" >
   <i type="int" name="IDIOT">     3</i>
   <i type="int" name="ISPECIAL">     0</i>
   <i type="logical" name="LMUSIC"> F  </i>
   <v name="POMASS">     14.00100000     12.01100000     16.00000000      1.00000000</v>
   <v name="DARWINR">      0.00000000      0.00000000      0.00000000      0.00000000</v>
   <v name="DARWINV">      1.00000000      1.00000000      1.00000000      1.00000000</v>
   <i type="logical" name="LCORR"> T  </i>
  </separator>
  <i type="logical" name="GGA_COMPAT"> T  </i>
  <i type="logical" name="LBERRY"> F  </i>
  <i type="int" name="ICORELEVEL">     0</i>
  <i type="logical" name="LDAU"> F  </i>
  <i type="int" name="I_CONSTRAINED_M">     0</i>
  <separator name="electronic exchange-correlation" >
   <i type="string" name="GGA">PE</i>
   <i type="int" name="VOSKOWN">     0</i>
   <i type="logical" name="LHFCALC"> F  </i>
   <i type="string" name="PRECFOCK"></i>
   <i type="logical" name="LSYMGRAD"> F  </i>
   <i type="logical" name="LHFONE"> F  </i>
   <i type="logical" name="LRHFCALC"> F  </i>
   <i type="logical" name="LTHOMAS"> F  </i>
   <i type="logical" name="LMODELHF"> F  </i>
   <i name="ENCUT4O">     -1.00000000</i>
   <i type="int" name="EXXOEP">     0</i>
   <i type="int" name="FOURORBIT">     0</i>
   <i name="AEXX">      0.00000000</i>
   <i name="HFALPHA">      0.00000000</i>
   <i name="MCALPHA">      0.00000000</i>
   <i name="ALDAX">      1.00000000</i>
   <i name="AGGAX">      1.00000000</i>
   <i name="ALDAC">      1.00000000</i>
   <i name="AGGAC">      1.00000000</i>
   <i type="int" name="NKREDX">     1</i>
   <i type="int" name="NKREDY">     1</i>
   <i type="int" name="NKREDZ">     1</i>
   <i type="logical" name="SHIFTRED"> F  </i>
   <i type="logical" name="ODDONLY"> F  </i>
   <i type="logical" name="EVENONLY"> F  </i>
   <i type="int" name="LMAXFOCK">     0</i>
   <i type="int" name="NMAXFOCKAE">     0</i>
   <i type="logical" name="LFOCKAEDFT"> F  </i>
   <i name="HFSCREEN">      0.00000000</i>
   <i name="HFSCREENC">      0.00000000</i>
   <i type="int" name="NBANDSGWLOW">     0</i>
  </separator>
  <separator name="vdW DFT" >
   <i type="logical" name="LUSE_VDW"> F  </i>
   <i name="Zab_VDW">     -0.84910000</i>
   <i name="PARAM1">      0.12340000</i>
   <i name="PARAM2">      1.00000000</i>
   <i name="PARAM3">      0.00000000</i>
  </separator>
  <separator name="model GW" >
   <i type="int" name="MODEL_GW">     0</i>
   <i name="MODEL_EPS0">     77.53895411</i>
   <i name="MODEL_ALPHA">      1.00000000</i>
  </separator>
  <separator name="linear response parameters" >
   <i type="logical" name="LEPSILON"> F  </i>
   <i type="logical" name="LRPA"> F  </i>
   <i type="logical" name="LNABLA"> F  </i>
   <i type="logical" name="LVEL"> F  </i>
   <i type="int" name="KINTER">     0</i>
   <i name="CSHIFT">      0.10000000</i>
   <i name="OMEGAMAX">     -1.00000000</i>
   <i name="DEG_THRESHOLD">      0.00200000</i>
   <i name="RTIME">     -0.10000000</i>
   <i name="WPLASMAI">      0.00000000</i>
   <v name="DFIELD">      0.00000000      0.00000000      0.00000000</v>
   <v name="WPLASMA">      0.00000000      0.00000000      0.00000000      0.00000000      0.00000000      0.00000000      0.00000000      0.00000000      0.00000000</v>
  </separator>
  <separator name="orbital magnetization" >
   <i type="logical" name="NUCIND"> F  </i>
   <v name="MAGPOS">      0.00000000      0.00000000      0.00000000</v>
   <i type="logical" name="LNICSALL"> T  </i>
   <i type="logical" name="ORBITALMAG"> F  </i>
   <i type="logical" name="LMAGBLOCH"> F  </i>
   <i type="logical" name="LCHIMAG"> F  </i>
   <i type="logical" name="LGAUGE"> T  </i>
   <i type="int" name="MAGATOM">     0</i>
   <v name="MAGDIPOL">      0.00000000      0.00000000      0.00000000</v>
   <v name="AVECCONST">      0.00000000      0.00000000      0.00000000</v>
  </separator>
  <separator name="response functions" >
   <i type="logical" name="LADDER"> F  </i>
   <i type="logical" name="LRPAFORCE"> F  </i>
   <i type="logical" name="LFXC"> F  </i>
   <i type="logical" name="LHARTREE"> T  </i>
   <i type="int" name="IBSE">     0</i>
   <v type="int" name="KPOINT">    -1     0     0     0</v>
   <i type="logical" name="LTCTE"> F  </i>
   <i type="logical" name="LTETE"> F  </i>
   <i type="logical" name="LTRIPLET"> F  </i>
   <i type="logical" name="LFXCEPS"> F  </i>
   <i type="logical" name="LFXHEG"> F  </i>
   <i type="int" name="NATURALO">     2</i>
   <i type="logical" name="L2ORDER"> F  </i>
   <i type="logical" name="LMP2LT"> F  </i>
   <i type="logical" name="LUSEW"> F  </i>
   <i name="ENCUTGW">     -2.00000000</i>
   <i name="ENCUTGWSOFT">     -2.00000000</i>
   <i name="ENCUTLF">     -1.00000000</i>
   <i type="int" name="LMAXMP2">    -1</i>
   <i name="SCISSOR">      0.00000000</i>
   <i type="int" name="NOMEGA">     0</i>
   <i type="int" name="NOMEGAR">     0</i>
   <i type="int" name="NBANDSGW">    -1</i>
   <i type="int" name="NBANDSO">    -1</i>
   <i type="int" name="NBANDSV">    -1</i>
   <i type="int" name="NELM">   200</i>
   <i type="int" name="NELMHF">     1</i>
   <i type="int" name="DIM">     3</i>
   <i type="int" name="ANTIRES">     0</i>
   <i name="OMEGAMAX">    -30.00000000</i>
   <i name="OMEGAMIN">    -30.00000000</i>
   <i name="OMEGATL">   -200.00000000</i>
   <i type="int" name="OMEGAGRID">   140</i>
   <i name="CSHIFT">     -0.10000000</i>
   <i type="logical" name="SELFENERGY"> F  </i>
   <i type="logical" name="LSPECTRAL"> F  </i>
   <i type="logical" name="LSPECTRALGW"> F  </i>
   <i type="logical" name="LSINGLES"> F  </i>
   <i type="logical" name="LFERMIGW"> F  </i>
   <i type="logical" name="ODDONLYGW"> F  </i>
   <i type="logical" name="EVENONLYGW"> F  </i>
   <i type="int" name="NKREDLFX">     1</i>
   <i type="int" name="NKREDLFY">     1</i>
   <i type="int" name="NKREDLFZ">     1</i>
   <i type="int" name="MAXMEM">  2800</i>
   <i type="int" name="TELESCOPE">     0</i>
   <i type="int" name="TAUPAR">     1</i>
   <i type="int" name="OMEGAPAR">    -1</i>
   <i name="LAMBDA">      1.00000000</i>
  </separator>
  <separator name="External order field" >
   <i name="OFIELD_KAPPA">      0.00000000</i>
   <v name="OFIELD_K">      0.00000000      0.00000000      0.00000000</v>
   <i name="OFIELD_Q6_NEAR">      0.00000000</i>
   <i name="OFIELD_Q6_FAR">      0.00000000</i>
   <i name="OFIELD_A">      0.00000000</i>
  </separator>
  <separator name="solvation model" >
   <i type="logical" name="LSOL"> F  </i>
  </separator>
 </parameters>
 <atominfo>
  <atoms>     120 </atoms>
  <types>       4 </types>
  <array name="atoms" >
   <dimension dim="1">ion</dimension>
   <field type="string">element</field>
   <field type="int">atomtype</field>
   <set>
    <rc><c>N </c><c>   1</c></rc>
    <rc><c>N </c><c>   1</c></rc>
    <rc><c>N </c><c>   1</c></rc>
    <rc><c>N </c><c>   1</c></rc>
    <rc><c>N </c><c>   1</c></rc>
    <rc><c>N </c><c>   1</c></rc>
    <rc><c>C </c><c>   2</c></rc>
    <rc><c>C </c><c>   2</c></rc>
    <rc><c>C </c><c>   2</c></rc>
    <rc><c>C </c><c>   2</c></rc>
    <rc><c>C </c><c>   2</c></rc>
    <rc><c>C </c><c>   2</c></rc>
    <rc><c>C </c><c>   2</c></rc>
    <rc><c>C </c><c>   2</c></rc>
    <rc><c>C </c><c>   2</c></rc>
    <rc><c>C </c><c>   2</c></rc>
    <rc><c>C </c><c>   2</c></rc>
    <rc><c>C </c><c>   2</c></rc>
    <rc><c>C </c><c>   2</c></rc>
    <rc><c>C </c><c>   2</c></rc>
    <rc><c>C </c><c>   2</c></rc>
    <rc><c>C </c><c>   2</c></rc>
    <rc><c>C </c><c>   2</c></rc>
    <rc><c>C </c><c>   2</c></rc>
    <rc><c>C </c><c>   2</c></rc>
    <rc><c>C </c><c>   2</c></rc>
    <rc><c>C </c><c>   2</c></rc>
    <rc><c>C </c><c>   2</c></rc>
    <rc><c>C </c><c>   2</c></rc>
    <rc><c>C </c><c>   2</c></rc>
    <rc><c>C </c><c>   2</c></rc>
    <rc><c>C </c><c>   2</c></rc>
    <rc><c>C </c><c>   2</c></rc>
    <rc><c>C </c><c>   2</c></rc>
    <rc><c>C </c><c>   2</c></rc>
    <rc><c>C </c><c>   2</c></rc>
    <rc><c>C </c><c>   2</c></rc>
    <rc><c>C </c><c>   2</c></rc>
    <rc><c>C </c><c>   2</c></rc>
    <rc><c>C </c><c>   2</c></rc>
    <rc><c>C </c><c>   2</c></rc>
    <rc><c>C </c><c>   2</c></rc>
    <rc><c>C </c><c>   2</c></rc>
    <rc><c>C </c><c>   2</c></rc>
    <rc><c>C </c><c>   2</c></rc>
    <rc><c>C </c><c>   2</c></rc>
    <rc><c>C </c><c>   2</c></rc>
    <rc><c>C </c><c>   2</c></rc>
    <rc><c>C </c><c>   2</c></rc>
    <rc><c>C </c><c>   2</c></rc>
    <rc><c>C </c><c>   2</c></rc>
    <rc><c>C </c><c>   2</c></rc>
    <rc><c>C </c><c>   2</c></rc>
    <rc><c>C </c><c>   2</c></rc>
    <rc><c>C </c><c>   2</c></rc>
    <rc><c>C </c><c>   2</c></rc>
    <rc><c>C </c><c>   2</c></rc>
    <rc><c>C </c><c>   2</c></rc>
    <rc><c>C </c><c>   2</c></rc>
    <rc><c>C </c><c>   2</c></rc>
    <rc><c>C </c><c>   2</c></rc>
    <rc><c>C </c><c>   2</c></rc>
    <rc><c>C </c><c>   2</c></rc>
    <rc><c>C </c><c>   2</c></rc>
    <rc><c>C </c><c>   2</c></rc>
    <rc><c>C </c><c>   2</c></rc>
    <rc><c>C </c><c>   2</c></rc>
    <rc><c>C </c><c>   2</c></rc>
    <rc><c>C </c><c>   2</c></rc>
    <rc><c>C </c><c>   2</c></rc>
    <rc><c>C </c><c>   2</c></rc>
    <rc><c>C </c><c>   2</c></rc>
    <rc><c>O </c><c>   3</c></rc>
    <rc><c>O </c><c>   3</c></rc>
    <rc><c>O </c><c>   3</c></rc>
    <rc><c>O </c><c>   3</c></rc>
    <rc><c>O </c><c>   3</c></rc>
    <rc><c>O </c><c>   3</c></rc>
    <rc><c>O </c><c>   3</c></rc>
    <rc><c>O </c><c>   3</c></rc>
    <rc><c>O </c><c>   3</c></rc>
    <rc><c>O </c><c>   3</c></rc>
    <rc><c>O </c><c>   3</c></rc>
    <rc><c>O </c><c>   3</c></rc>
    <rc><c>H </c><c>   4</c></rc>
    <rc><c>H </c><c>   4</c></rc>
    <rc><c>H </c><c>   4</c></rc>
    <rc><c>H </c><c>   4</c></rc>
    <rc><c>H </c><c>   4</c></rc>
    <rc><c>H </c><c>   4</c></rc>
    <rc><c>H </c><c>   4</c></rc>
    <rc><c>H </c><c>   4</c></rc>
    <rc><c>H </c><c>   4</c></rc>
    <rc><c>H </c><c>   4</c></rc>
    <rc><c>H </c><c>   4</c></rc>
    <rc><c>H </c><c>   4</c></rc>
    <rc><c>H </c><c>   4</c></rc>
    <rc><c>H </c><c>   4</c></rc>
    <rc><c>H </c><c>   4</c></rc>
    <rc><c>H </c><c>   4</c></rc>
    <rc><c>H </c><c>   4</c></rc>
    <rc><c>H </c><c>   4</c></rc>
    <rc><c>H </c><c>   4</c></rc>
    <rc><c>H </c><c>   4</c></rc>
    <rc><c>H </c><c>   4</c></rc>
    <rc><c>H </c><c>   4</c></rc>
    <rc><c>H </c><c>   4</c></rc>
    <rc><c>H </c><c>   4</c></rc>
    <rc><c>H </c><c>   4</c></rc>
    <rc><c>H </c><c>   4</c></rc>
    <rc><c>H </c><c>   4</c></rc>
    <rc><c>H </c><c>   4</c></rc>
    <rc><c>H </c><c>   4</c></rc>
    <rc><c>H </c><c>   4</c></rc>
    <rc><c>H </c><c>   4</c></rc>
    <rc><c>H </c><c>   4</c></rc>
    <rc><c>H </c><c>   4</c></rc>
    <rc><c>H </c><c>   4</c></rc>
    <rc><c>H </c><c>   4</c></rc>
    <rc><c>H </c><c>   4</c></rc>
   </set>
  </array>
  <array name="atomtypes" >
   <dimension dim="1">type</dimension>
   <field type="int">atomspertype</field>
   <field type="string">element</field>
   <field>mass</field>
   <field>valence</field>
   <field type="string">pseudopotential</field>
   <set>
    <rc><c>   6</c><c>N </c><c>     14.00100000</c><c>      5.00000000</c><c>  PAW_PBE N 08Apr2002                   </c></rc>
    <rc><c>  66</c><c>C </c><c>     12.01100000</c><c>      4.00000000</c><c>  PAW_PBE C 08Apr2002                   </c></rc>
    <rc><c>  12</c><c>O </c><c>     16.00000000</c><c>      6.00000000</c><c>  PAW_PBE O 08Apr2002                   </c></rc>
    <rc><c>  36</c><c>H </c><c>      1.00000000</c><c>      1.00000000</c><c>  PAW_PBE H 15Jun2001                   </c></rc>
   </set>
  </array>
 </atominfo>
 <structure name="initialpos" >
  <crystal>
   <varray name="basis" >
    <v>      29.90455386       0.05410510       0.00000000 </v>
    <v>     -14.90545046      25.90184371       0.00000000 </v>
    <v>       0.00000000       0.00000000      20.00000000 </v>
   </varray>
   <i name="volume">  15507.79082191 </i>
   <varray name="rec_basis" >
    <v>       0.03340494       0.01922318       0.00000000 </v>
    <v>      -0.00006978       0.03856714       0.00000000 </v>
    <v>       0.00000000       0.00000000       0.05000000 </v>
   </varray>
  </crystal>
  <varray name="positions" >
   <v>       0.05618995       0.52679755       0.38371962 </v>
   <v>       0.53616039       0.05103197       0.63770415 </v>
   <v>       0.53355667       0.48014589       0.63710410 </v>
   <v>       0.96256615       0.47878337       0.64082592 </v>
   <v>       0.49001648       0.95547521       0.38194141 </v>
   <v>       0.48750651       0.52830636       0.38017437 </v>
   <v>       0.03877203       0.52102835       0.57005945 </v>
   <v>       0.06496194       0.53258385       0.50878517 </v>
   <v>       0.03361100       0.51349830       0.45158557 </v>
   <v>       0.14959898       0.60568978       0.54619438 </v>
   <v>       0.12188655       0.56093464       0.50755052 </v>
   <v>       0.14941507       0.54307116       0.46969655 </v>
   <v>       0.20323744       0.63221151       0.54613148 </v>
   <v>       0.20300289       0.56943563       0.47011583 </v>
   <v>       0.28800584       0.64302208       0.50780990 </v>
   <v>       0.31551222       0.69712503       0.50772004 </v>
   <v>       0.36955939       0.72452519       0.50755697 </v>
   <v>       0.39615107       0.69688651       0.50736667 </v>
   <v>       0.36964996       0.64278385       0.50720246 </v>
   <v>       0.31558233       0.61636905       0.50748521 </v>
   <v>       0.39809034       0.78159496       0.50739480 </v>
   <v>       0.38154434       0.80954310       0.46789657 </v>
   <v>       0.40874691       0.86318639       0.46697541 </v>
   <v>       0.45322710       0.89067861       0.50613123 </v>
   <v>       0.46950293       0.86299326       0.54639674 </v>
   <v>       0.44255482       0.80932499       0.54663454 </v>
   <v>       0.23097955       0.61466585       0.50804326 </v>
   <v>       0.39810011       0.61403021       0.50649445 </v>
   <v>       0.38073560       0.56855225       0.54394432 </v>
   <v>       0.40735033       0.54137910       0.54315324 </v>
   <v>       0.45202747       0.55852100       0.50427158 </v>
   <v>       0.46964202       0.60402757       0.46691834 </v>
   <v>       0.44318197       0.63132509       0.46821039 </v>
   <v>       0.73098983       0.36307138       0.51263850 </v>
   <v>       0.70309735       0.30897807       0.51229913 </v>
   <v>       0.64902469       0.28195929       0.51288927 </v>
   <v>       0.62285231       0.31000118       0.51361453 </v>
   <v>       0.64976184       0.36411202       0.51345318 </v>
   <v>       0.70381032       0.39012082       0.51305845 </v>
   <v>       0.62020788       0.22492490       0.51282051 </v>
   <v>       0.63697775       0.19685985       0.47403838 </v>
   <v>       0.61008267       0.14320577       0.47404655 </v>
   <v>       0.56579744       0.11581381       0.51355340 </v>
   <v>       0.54870282       0.14361987       0.55218723 </v>
   <v>       0.57540589       0.19726298       0.55156698 </v>
   <v>       0.78798747       0.39102624       0.51379256 </v>
   <v>       0.81600418       0.37341685       0.47642313 </v>
   <v>       0.86962535       0.39969798       0.47747741 </v>
   <v>       0.89704342       0.44425845       0.51657766 </v>
   <v>       0.86924968       0.46206961       0.55392151 </v>
   <v>       0.81567998       0.43595026       0.55236220 </v>
   <v>       0.62169660       0.39322064       0.51301660 </v>
   <v>       0.63953279       0.43857360       0.47514953 </v>
   <v>       0.61319081       0.46602955       0.47503951 </v>
   <v>       0.56832235       0.44926223       0.51337799 </v>
   <v>       0.55016900       0.40381062       0.55100694 </v>
   <v>       0.57637511       0.37627838       0.55065334 </v>
   <v>       0.53772061       0.05881993       0.51271971 </v>
   <v>       0.52193056       0.02769031       0.57031724 </v>
   <v>       0.49416684       0.97409083       0.56798845 </v>
   <v>       0.54015473       0.47818039       0.51211529 </v>
   <v>       0.52073818       0.49019049       0.56929774 </v>
   <v>       0.49166536       0.51475893       0.56641012 </v>
   <v>       0.95396525       0.47265879       0.51578306 </v>
   <v>       0.98529040       0.49184660       0.57298807 </v>
   <v>       0.48220584       0.94767832       0.50687333 </v>
   <v>       0.49825183       0.97880836       0.44927235 </v>
   <v>       0.52405095       0.03241992       0.45157838 </v>
   <v>       0.48053766       0.52992969       0.50517698 </v>
   <v>       0.50008575       0.51805275       0.44801331 </v>
   <v>       0.52912553       0.49343026       0.45089063 </v>
   <v>       0.98015554       0.48426692       0.45451931 </v>
   <v>       0.08792735       0.57254619       0.37257200 </v>
   <v>       0.04053926       0.49109751       0.34253534 </v>
   <v>       0.50119519       0.03569768       0.67987679 </v>
   <v>       0.58197656       0.08324265       0.64732033 </v>
   <v>       0.57933190       0.49452626       0.64891331 </v>
   <v>       0.49747825       0.45909670       0.67756222 </v>
   <v>       0.93081186       0.43307613       0.65215671 </v>
   <v>       0.97803312       0.51462731       0.68175039 </v>
   <v>       0.50359642       0.92300463       0.37316640 </v>
   <v>       0.47115142       0.97111299       0.33894800 </v>
   <v>       0.44175340       0.51378223       0.36800281 </v>
   <v>       0.52377998       0.54968318       0.34006920 </v>
   <v>       0.06056403       0.53347565       0.61657289 </v>
   <v>       0.12887101       0.62024590       0.57575666 </v>
   <v>       0.12872689       0.50801054       0.43987919 </v>
   <v>       0.22401112       0.66671514       0.57687188 </v>
   <v>       0.22358467       0.55530164       0.43952204 </v>
   <v>       0.34631441       0.55472389       0.57487961 </v>
   <v>       0.39296990       0.50598956       0.57229925 </v>
   <v>       0.45714583       0.66616542       0.43804562 </v>
   <v>       0.50461032       0.61849171       0.43689368 </v>
   <v>       0.45573851       0.78852566       0.57845178 </v>
   <v>       0.50413018       0.88380041       0.57690667 </v>
   <v>       0.39511757       0.88392077       0.43574052 </v>
   <v>       0.34745301       0.78888025       0.43644739 </v>
   <v>       0.29449746       0.71829258       0.50766126 </v>
   <v>       0.29459459       0.57429280       0.50728072 </v>
   <v>       0.43820438       0.71788561       0.50713811 </v>
   <v>       0.89059028       0.38517940       0.44835283 </v>
   <v>       0.79547241       0.33908093       0.44531712 </v>
   <v>       0.88970107       0.49694913       0.58411275 </v>
   <v>       0.79487370       0.45006571       0.58252241 </v>
   <v>       0.67410721       0.45207576       0.44460115 </v>
   <v>       0.62794831       0.50134878       0.44565457 </v>
   <v>       0.56202078       0.34150949       0.58105574 </v>
   <v>       0.51501089       0.38963128       0.58056219 </v>
   <v>       0.56194330       0.21815646       0.58272477 </v>
   <v>       0.51409516       0.12312889       0.58283844 </v>
   <v>       0.62400666       0.12215799       0.44398805 </v>
   <v>       0.67119232       0.21742701       0.44278254 </v>
   <v>       0.72380072       0.28754193       0.51466823 </v>
   <v>       0.72510805       0.43219366       0.51327607 </v>
   <v>       0.58083614       0.28935546       0.51149227 </v>
   <v>       0.48158871       0.95248891       0.61464706 </v>
   <v>       0.47897091       0.52391787       0.61291512 </v>
   <v>       0.53368181       0.05403816       0.40487914 </v>
   <v>       0.54182697       0.48426968       0.40438890 </v>
   <v>       0.95836311       0.47185405       0.40800582 </v>
  </varray>
 </structure>
 <calculation>
  <scstep>
   <time name="dav">  748.44  756.82</time>
   <time name="total">  748.71  757.09</time>
   <energy>
    <i name="alphaZ">     47.96501547 </i>
    <i name="ewald">  50398.19488477 </i>
    <i name="hartreedc"> -64245.27962301 </i>
    <i name="XCdc">   1460.97656110 </i>
    <i name="pawpsdc">  36564.52221555 </i>
    <i name="pawaedc"> -36641.48721299 </i>
    <i name="eentropy">     -0.00000000 </i>
    <i name="bandstr">  -5361.52217086 </i>
    <i name="atom">  16936.79361787 </i>
    <i name="e_fr_energy">   -839.83671210 </i>
    <i name="e_wo_entrp">   -839.83671210 </i>
    <i name="e_0_energy">   -839.83671210 </i>
   </energy>
  </scstep>
  <scstep>
   <time name="dav">  839.93  848.91</time>
   <time name="total">  839.93  848.91</time>
   <energy>
    <i name="e_fr_energy">   -840.35028226 </i>
    <i name="e_wo_entrp">   -840.35028226 </i>
    <i name="e_0_energy">   -840.35028226 </i>
   </energy>
  </scstep>
  <scstep>
   <time name="dav">  912.13  922.16</time>
   <time name="total">  912.13  922.16</time>
   <energy>
    <i name="e_fr_energy">   -840.36128104 </i>
    <i name="e_wo_entrp">   -840.36128104 </i>
    <i name="e_0_energy">   -840.36128104 </i>
   </energy>
  </scstep>
  <scstep>
   <time name="dav">  830.77  839.78</time>
   <time name="total">  830.77  839.78</time>
   <energy>
    <i name="e_fr_energy">   -840.36151796 </i>
    <i name="e_wo_entrp">   -840.36151796 </i>
    <i name="e_0_energy">   -840.36151796 </i>
   </energy>
  </scstep>
  <scstep>
   <time name="dav">  763.45  771.69</time>
   <time name="total">  763.46  771.70</time>
   <energy>
    <i name="e_fr_energy">   -840.36152881 </i>
    <i name="e_wo_entrp">   -840.36152881 </i>
    <i name="e_0_energy">   -840.36152881 </i>
   </energy>
  </scstep>
  <scstep>
   <time name="dav">  614.96  621.61</time>
   <time name="total">  614.97  621.61</time>
   <energy>
    <i name="alphaZ">     47.96501547 </i>
    <i name="ewald">  50398.19488477 </i>
    <i name="hartreedc"> -64245.27962301 </i>
    <i name="XCdc">   1460.97656110 </i>
    <i name="pawpsdc">  36564.52221555 </i>
    <i name="pawaedc"> -36641.48721299 </i>
    <i name="eentropy">     -0.00000000 </i>
    <i name="bandstr">  -5362.04698777 </i>
    <i name="atom">  16936.79361787 </i>
    <i name="e_fr_energy">   -840.36152901 </i>
    <i name="e_wo_entrp">   -840.36152901 </i>
    <i name="e_0_energy">   -840.36152901 </i>
   </energy>
  </scstep>
  <structure>
   <crystal>
    <varray name="basis" >
     <v>      29.90455386       0.05410510       0.00000000 </v>
     <v>     -14.90545046      25.90184371       0.00000000 </v>
     <v>       0.00000000       0.00000000      20.00000000 </v>
    </varray>
    <i name="volume">  15507.79082191 </i>
    <varray name="rec_basis" >
     <v>       0.03340494       0.01922318       0.00000000 </v>
     <v>      -0.00006978       0.03856714       0.00000000 </v>
     <v>       0.00000000       0.00000000       0.05000000 </v>
    </varray>
   </crystal>
   <varray name="positions" >
    <v>       0.05618995       0.52679755       0.38371962 </v>
    <v>       0.53616039       0.05103197       0.63770415 </v>
    <v>       0.53355667       0.48014589       0.63710410 </v>
    <v>       0.96256615       0.47878337       0.64082592 </v>
    <v>       0.49001648       0.95547521       0.38194141 </v>
    <v>       0.48750651       0.52830636       0.38017437 </v>
    <v>       0.03877203       0.52102835       0.57005945 </v>
    <v>       0.06496194       0.53258385       0.50878517 </v>
    <v>       0.03361100       0.51349830       0.45158557 </v>
    <v>       0.14959898       0.60568978       0.54619438 </v>
    <v>       0.12188655       0.56093464       0.50755052 </v>
    <v>       0.14941507       0.54307116       0.46969655 </v>
    <v>       0.20323744       0.63221151       0.54613148 </v>
    <v>       0.20300289       0.56943563       0.47011583 </v>
    <v>       0.28800584       0.64302208       0.50780990 </v>
    <v>       0.31551222       0.69712503       0.50772004 </v>
    <v>       0.36955939       0.72452519       0.50755697 </v>
    <v>       0.39615107       0.69688651       0.50736667 </v>
    <v>       0.36964996       0.64278385       0.50720246 </v>
    <v>       0.31558233       0.61636905       0.50748521 </v>
    <v>       0.39809034       0.78159496       0.50739480 </v>
    <v>       0.38154434       0.80954310       0.46789657 </v>
    <v>       0.40874691       0.86318639       0.46697541 </v>
    <v>       0.45322710       0.89067861       0.50613123 </v>
    <v>       0.46950293       0.86299326       0.54639674 </v>
    <v>       0.44255482       0.80932499       0.54663454 </v>
    <v>       0.23097955       0.61466585       0.50804326 </v>
    <v>       0.39810011       0.61403021       0.50649445 </v>
    <v>       0.38073560       0.56855225       0.54394432 </v>
    <v>       0.40735033       0.54137910       0.54315324 </v>
    <v>       0.45202747       0.55852100       0.50427158 </v>
    <v>       0.46964202       0.60402757       0.46691834 </v>
    <v>       0.44318197       0.63132509       0.46821039 </v>
    <v>       0.73098983       0.36307138       0.51263850 </v>
    <v>       0.70309735       0.30897807       0.51229913 </v>
    <v>       0.64902469       0.28195929       0.51288927 </v>
    <v>       0.62285231       0.31000118       0.51361453 </v>
    <v>       0.64976184       0.36411202       0.51345318 </v>
    <v>       0.70381032       0.39012082       0.51305845 </v>
    <v>       0.62020788       0.22492490       0.51282051 </v>
    <v>       0.63697775       0.19685985       0.47403838 </v>
    <v>       0.61008267       0.14320577       0.47404655 </v>
    <v>       0.56579744       0.11581381       0.51355340 </v>
    <v>       0.54870282       0.14361987       0.55218723 </v>
    <v>       0.57540589       0.19726298       0.55156698 </v>
    <v>       0.78798747       0.39102624       0.51379256 </v>
    <v>       0.81600418       0.37341685       0.47642313 </v>
    <v>       0.86962535       0.39969798       0.47747741 </v>
    <v>       0.89704342       0.44425845       0.51657766 </v>
    <v>       0.86924968       0.46206961       0.55392151 </v>
    <v>       0.81567998       0.43595026       0.55236220 </v>
    <v>       0.62169660       0.39322064       0.51301660 </v>
    <v>       0.63953279       0.43857360       0.47514953 </v>
    <v>       0.61319081       0.46602955       0.47503951 </v>
    <v>       0.56832235       0.44926223       0.51337799 </v>
    <v>       0.55016900       0.40381062       0.55100694 </v>
    <v>       0.57637511       0.37627838       0.55065334 </v>
    <v>       0.53772061       0.05881993       0.51271971 </v>
    <v>       0.52193056       0.02769031       0.57031724 </v>
    <v>       0.49416684       0.97409083       0.56798845 </v>
    <v>       0.54015473       0.47818039       0.51211529 </v>
    <v>       0.52073818       0.49019049       0.56929774 </v>
    <v>       0.49166536       0.51475893       0.56641012 </v>
    <v>       0.95396525       0.47265879       0.51578306 </v>
    <v>       0.98529040       0.49184660       0.57298807 </v>
    <v>       0.48220584       0.94767832       0.50687333 </v>
    <v>       0.49825183       0.97880836       0.44927235 </v>
    <v>       0.52405095       0.03241992       0.45157838 </v>
    <v>       0.48053766       0.52992969       0.50517698 </v>
    <v>       0.50008575       0.51805275       0.44801331 </v>
    <v>       0.52912553       0.49343026       0.45089063 </v>
    <v>       0.98015554       0.48426692       0.45451931 </v>
    <v>       0.08792735       0.57254619       0.37257200 </v>
    <v>       0.04053926       0.49109751       0.34253534 </v>
    <v>       0.50119519       0.03569768       0.67987679 </v>
    <v>       0.58197656       0.08324265       0.64732033 </v>
    <v>       0.57933190       0.49452626       0.64891331 </v>
    <v>       0.49747825       0.45909670       0.67756222 </v>
    <v>       0.93081186       0.43307613       0.65215671 </v>
    <v>       0.97803312       0.51462731       0.68175039 </v>
    <v>       0.50359642       0.92300463       0.37316640 </v>
    <v>       0.47115142       0.97111299       0.33894800 </v>
    <v>       0.44175340       0.51378223       0.36800281 </v>
    <v>       0.52377998       0.54968318       0.34006920 </v>
    <v>       0.06056403       0.53347565       0.61657289 </v>
    <v>       0.12887101       0.62024590       0.57575666 </v>
    <v>       0.12872689       0.50801054       0.43987919 </v>
    <v>       0.22401112       0.66671514       0.57687188 </v>
    <v>       0.22358467       0.55530164       0.43952204 </v>
    <v>       0.34631441       0.55472389       0.57487961 </v>
    <v>       0.39296990       0.50598956       0.57229925 </v>
    <v>       0.45714583       0.66616542       0.43804562 </v>
    <v>       0.50461032       0.61849171       0.43689368 </v>
    <v>       0.45573851       0.78852566       0.57845178 </v>
    <v>       0.50413018       0.88380041       0.57690667 </v>
    <v>       0.39511757       0.88392077       0.43574052 </v>
    <v>       0.34745301       0.78888025       0.43644739 </v>
    <v>       0.29449746       0.71829258       0.50766126 </v>
    <v>       0.29459459       0.57429280       0.50728072 </v>
    <v>       0.43820438       0.71788561       0.50713811 </v>
    <v>       0.89059028       0.38517940       0.44835283 </v>
    <v>       0.79547241       0.33908093       0.44531712 </v>
    <v>       0.88970107       0.49694913       0.58411275 </v>
    <v>       0.79487370       0.45006571       0.58252241 </v>
    <v>       0.67410721       0.45207576       0.44460115 </v>
    <v>       0.62794831       0.50134878       0.44565457 </v>
    <v>       0.56202078       0.34150949       0.58105574 </v>
    <v>       0.51501089       0.38963128       0.58056219 </v>
    <v>       0.56194330       0.21815646       0.58272477 </v>
    <v>       0.51409516       0.12312889       0.58283844 </v>
    <v>       0.62400666       0.12215799       0.44398805 </v>
    <v>       0.67119232       0.21742701       0.44278254 </v>
    <v>       0.72380072       0.28754193       0.51466823 </v>
    <v>       0.72510805       0.43219366       0.51327607 </v>
    <v>       0.58083614       0.28935546       0.51149227 </v>
    <v>       0.48158871       0.95248891       0.61464706 </v>
    <v>       0.47897091       0.52391787       0.61291512 </v>
    <v>       0.53368181       0.05403816       0.40487914 </v>
    <v>       0.54182697       0.48426968       0.40438890 </v>
    <v>       0.95836311       0.47185405       0.40800582 </v>
   </varray>
  </structure>
  <varray name="forces" >
   <v>       0.00216274       0.00011249       0.00175796 </v>
   <v>       0.00256320       0.00121115       0.00016887 </v>
   <v>      -0.00191327       0.00120663       0.00416686 </v>
   <v>       0.00068188      -0.00504262      -0.00177391 </v>
   <v>      -0.00446276       0.00544377      -0.00243567 </v>
   <v>      -0.00194010       0.00105346       0.00002638 </v>
   <v>       0.00150582       0.00049532      -0.00090514 </v>
   <v>       0.00094401       0.00015068      -0.00072933 </v>
   <v>       0.00061412       0.00050869       0.00135898 </v>
   <v>       0.00069078       0.00010390      -0.00063050 </v>
   <v>      -0.00177514      -0.00054208       0.00061377 </v>
   <v>      -0.00089587      -0.00022629       0.00061652 </v>
   <v>      -0.00135342       0.00026164      -0.00002783 </v>
   <v>       0.00125297       0.00092581      -0.00009171 </v>
   <v>      -0.00097440      -0.00171020       0.00015107 </v>
   <v>      -0.00071691       0.00007084       0.00019534 </v>
   <v>       0.00002744       0.00144609      -0.00027239 </v>
   <v>      -0.00101046       0.00027668       0.00025960 </v>
   <v>       0.00043276      -0.00095043      -0.00003077 </v>
   <v>      -0.00164479       0.00022512      -0.00047366 </v>
   <v>      -0.00051327      -0.00043667       0.00006083 </v>
   <v>      -0.00058604      -0.00177056       0.00046585 </v>
   <v>       0.00026035      -0.00027707      -0.00017889 </v>
   <v>       0.00032895       0.00332064      -0.00033615 </v>
   <v>       0.00086528      -0.00114198       0.00084256 </v>
   <v>       0.00007876      -0.00067780       0.00113412 </v>
   <v>       0.00138554      -0.00043350      -0.00051686 </v>
   <v>      -0.00102776       0.00140619      -0.00048702 </v>
   <v>       0.00051770      -0.00012332      -0.00035034 </v>
   <v>       0.00009398       0.00044320      -0.00100910 </v>
   <v>       0.00042358      -0.00101915       0.00089420 </v>
   <v>      -0.00105050       0.00090164      -0.00033065 </v>
   <v>      -0.00035151      -0.00017336      -0.00006468 </v>
   <v>       0.00205976      -0.00068756       0.00049133 </v>
   <v>      -0.00044686      -0.00059068      -0.00086546 </v>
   <v>       0.00017354      -0.00049927      -0.00111105 </v>
   <v>      -0.00102239       0.00003796      -0.00031879 </v>
   <v>      -0.00082805       0.00087184      -0.00033816 </v>
   <v>      -0.00064251      -0.00087791      -0.00004992 </v>
   <v>      -0.00086923       0.00084024      -0.00077893 </v>
   <v>       0.00012920      -0.00013277      -0.00150881 </v>
   <v>      -0.00003001      -0.00057989      -0.00073153 </v>
   <v>      -0.00046885      -0.00110851      -0.00085265 </v>
   <v>      -0.00020078      -0.00071774      -0.00102131 </v>
   <v>      -0.00062356      -0.00007367      -0.00076449 </v>
   <v>      -0.00055560      -0.00134790      -0.00038347 </v>
   <v>       0.00001381      -0.00008199      -0.00015661 </v>
   <v>      -0.00044433      -0.00019807       0.00029028 </v>
   <v>       0.00211399       0.00025824       0.00020242 </v>
   <v>       0.00047438       0.00021094       0.00080401 </v>
   <v>      -0.00092216      -0.00050513       0.00076559 </v>
   <v>       0.00097124      -0.00032538      -0.00006635 </v>
   <v>       0.00066842       0.00092855      -0.00047326 </v>
   <v>       0.00013000       0.00039399       0.00085312 </v>
   <v>      -0.00260065       0.00277279      -0.00040449 </v>
   <v>      -0.00091592       0.00140873       0.00051621 </v>
   <v>       0.00079797      -0.00064948      -0.00002224 </v>
   <v>       0.00047650       0.00119154       0.00054746 </v>
   <v>       0.00074795       0.00130890      -0.00069931 </v>
   <v>       0.00072204      -0.00023980      -0.00103606 </v>
   <v>       0.00192535      -0.00026259      -0.00045053 </v>
   <v>       0.00365533      -0.00054343       0.00057072 </v>
   <v>      -0.00077254       0.00105942       0.00024262 </v>
   <v>      -0.00057012      -0.00026426      -0.00051706 </v>
   <v>      -0.00079933      -0.00081079       0.00036130 </v>
   <v>       0.00066629      -0.00067502      -0.00084220 </v>
   <v>       0.00042773      -0.00371864      -0.00047430 </v>
   <v>       0.00051466       0.00144752       0.00026127 </v>
   <v>      -0.00180285       0.00106623      -0.00105819 </v>
   <v>      -0.00208621       0.00025428      -0.00014028 </v>
   <v>       0.00171845      -0.00128734       0.00053016 </v>
   <v>      -0.00056204      -0.00069508      -0.00005691 </v>
   <v>       0.00007019      -0.00205457      -0.00129447 </v>
   <v>       0.00095019      -0.00053864       0.00032795 </v>
   <v>      -0.00216138       0.00107603      -0.00091654 </v>
   <v>      -0.00111461      -0.00040607       0.00133999 </v>
   <v>       0.00369257       0.00257360       0.00148754 </v>
   <v>       0.00309099       0.00290735      -0.00309788 </v>
   <v>       0.00270119       0.00010772      -0.00096395 </v>
   <v>       0.00375540      -0.00013488       0.00358999 </v>
   <v>       0.00237198      -0.00343442      -0.00160445 </v>
   <v>       0.00204896      -0.00290882       0.00337883 </v>
   <v>      -0.00162218       0.00140956      -0.00045878 </v>
   <v>      -0.00119786      -0.00141446      -0.00052507 </v>
   <v>       0.00088071       0.00081328       0.00097030 </v>
   <v>      -0.00086327      -0.00014512      -0.00033439 </v>
   <v>      -0.00001675       0.00060003       0.00066524 </v>
   <v>       0.00006038       0.00188642       0.00045089 </v>
   <v>      -0.00035853       0.00111932      -0.00022166 </v>
   <v>      -0.00125696      -0.00086376       0.00075119 </v>
   <v>      -0.00073503      -0.00039158      -0.00023992 </v>
   <v>      -0.00045715      -0.00041817       0.00034967 </v>
   <v>      -0.00105700       0.00027795       0.00028805 </v>
   <v>      -0.00096262      -0.00101241      -0.00000432 </v>
   <v>      -0.00056466      -0.00059908       0.00030755 </v>
   <v>       0.00045711       0.00054742      -0.00007250 </v>
   <v>      -0.00017711      -0.00065078      -0.00009994 </v>
   <v>      -0.00022372      -0.00007370      -0.00023114 </v>
   <v>      -0.00076024      -0.00017472       0.00027194 </v>
   <v>       0.00000454      -0.00014612       0.00016726 </v>
   <v>      -0.00034028      -0.00080825       0.00029808 </v>
   <v>      -0.00050471      -0.00127915       0.00071498 </v>
   <v>       0.00039534      -0.00025680       0.00101211 </v>
   <v>      -0.00011108      -0.00166024       0.00062519 </v>
   <v>       0.00058443       0.00074008       0.00037065 </v>
   <v>       0.00111639       0.00033714       0.00029421 </v>
   <v>      -0.00038946       0.00065058       0.00086511 </v>
   <v>      -0.00010477       0.00132406       0.00029720 </v>
   <v>      -0.00012273       0.00003017      -0.00117642 </v>
   <v>       0.00042116      -0.00052071      -0.00089094 </v>
   <v>      -0.00061736       0.00008101      -0.00046739 </v>
   <v>      -0.00062787       0.00027999      -0.00096812 </v>
   <v>      -0.00061948      -0.00066503       0.00036067 </v>
   <v>      -0.00000036       0.00041133       0.00030194 </v>
   <v>      -0.00057699      -0.00039632      -0.00009629 </v>
   <v>      -0.00016432      -0.00095146      -0.00000565 </v>
   <v>      -0.00083434       0.00019924       0.00071757 </v>
   <v>      -0.00055171       0.00017060      -0.00022860 </v>
   <v>       0.00090503       0.00229921      -0.00037983 </v>
   <v>      -0.00024829      -0.00015403       0.00069173 </v>
  </varray>
  <varray name="stress" >
   <v>      -0.00148708       0.00099754      -0.00414889 </v>
   <v>       0.00099754      -0.00024857       0.00360369 </v>
   <v>      -0.00414889       0.00360369      -0.17249258 </v>
  </varray>
  <energy>
   <i name="e_fr_energy">   -842.98057338 </i>
   <i name="e_wo_entrp">   -842.98057338 </i>
   <i name="e_0_energy">     -0.00000000 </i>
  </energy>
  <time name="totalsc"> 5558.47 5621.45</time>
  <eigenvalues>
   <array>
    <dimension dim="1">band</dimension>
    <dimension dim="2">kpoint</dimension>
    <dimension dim="3">spin</dimension>
    <field>eigene</field>
    <field>occ</field>
    <set>
     <set comment="spin 1">
      <set comment="kpoint 1">
       <r>  -30.8724    1.0000 </r>
       <r>  -30.8699    1.0000 </r>
       <r>  -30.8634    1.0000 </r>
       <r>  -30.8620    1.0000 </r>
       <r>  -30.8526    1.0000 </r>
       <r>  -30.8507    1.0000 </r>
       <r>  -26.5014    1.0000 </r>
       <r>  -26.5009    1.0000 </r>
       <r>  -26.4917    1.0000 </r>
       <r>  -26.4909    1.0000 </r>
       <r>  -26.4809    1.0000 </r>
       <r>  -26.4783    1.0000 </r>
       <r>  -22.8098    1.0000 </r>
       <r>  -22.8064    1.0000 </r>
       <r>  -22.7997    1.0000 </r>
       <r>  -22.0288    1.0000 </r>
       <r>  -21.9591    1.0000 </r>
       <r>  -21.7865    1.0000 </r>
       <r>  -21.7812    1.0000 </r>
       <r>  -21.5421    1.0000 </r>
       <r>  -21.5371    1.0000 </r>
       <r>  -21.4355    1.0000 </r>
       <r>  -21.1094    1.0000 </r>
       <r>  -20.9010    1.0000 </r>
       <r>  -20.8940    1.0000 </r>
       <r>  -20.7879    1.0000 </r>
       <r>  -20.3053    1.0000 </r>
       <r>  -20.3017    1.0000 </r>
       <r>  -19.9767    1.0000 </r>
       <r>  -19.8196    1.0000 </r>
       <r>  -19.8163    1.0000 </r>
       <r>  -19.1623    1.0000 </r>
       <r>  -19.1558    1.0000 </r>
       <r>  -19.1104    1.0000 </r>
       <r>  -18.8304    1.0000 </r>
       <r>  -18.8091    1.0000 </r>
       <r>  -18.6879    1.0000 </r>
       <r>  -18.6517    1.0000 </r>
       <r>  -18.6428    1.0000 </r>
       <r>  -18.6357    1.0000 </r>
       <r>  -18.6189    1.0000 </r>
       <r>  -18.6024    1.0000 </r>
       <r>  -18.4882    1.0000 </r>
       <r>  -18.1138    1.0000 </r>
       <r>  -18.0466    1.0000 </r>
       <r>  -18.0310    1.0000 </r>
       <r>  -17.6283    1.0000 </r>
       <r>  -17.6208    1.0000 </r>
       <r>  -16.4299    1.0000 </r>
       <r>  -16.4034    1.0000 </r>
       <r>  -16.3795    1.0000 </r>
       <r>  -16.3327    1.0000 </r>
       <r>  -16.3256    1.0000 </r>
       <r>  -16.3120    1.0000 </r>
       <r>  -15.7797    1.0000 </r>
       <r>  -15.6941    1.0000 </r>
       <r>  -15.6565    1.0000 </r>
       <r>  -15.6359    1.0000 </r>
       <r>  -15.5186    1.0000 </r>
       <r>  -15.2442    1.0000 </r>
       <r>  -15.2020    1.0000 </r>
       <r>  -15.0594    1.0000 </r>
       <r>  -15.0308    1.0000 </r>
       <r>  -15.0250    1.0000 </r>
       <r>  -15.0065    1.0000 </r>
       <r>  -14.8797    1.0000 </r>
       <r>  -14.4829    1.0000 </r>
       <r>  -14.3926    1.0000 </r>
       <r>  -14.2406    1.0000 </r>
       <r>  -14.1263    1.0000 </r>
       <r>  -14.1027    1.0000 </r>
       <r>  -14.0713    1.0000 </r>
       <r>  -14.0586    1.0000 </r>
       <r>  -13.7345    1.0000 </r>
       <r>  -13.7234    1.0000 </r>
       <r>  -13.7193    1.0000 </r>
       <r>  -13.5772    1.0000 </r>
       <r>  -13.5579    1.0000 </r>
       <r>  -13.5268    1.0000 </r>
       <r>  -13.4864    1.0000 </r>
       <r>  -13.4797    1.0000 </r>
       <r>  -13.4657    1.0000 </r>
       <r>  -13.3350    1.0000 </r>
       <r>  -13.1197    1.0000 </r>
       <r>  -13.0025    1.0000 </r>
       <r>  -12.9727    1.0000 </r>
       <r>  -12.9686    1.0000 </r>
       <r>  -12.7407    1.0000 </r>
       <r>  -12.7295    1.0000 </r>
       <r>  -12.6399    1.0000 </r>
       <r>  -12.6104    1.0000 </r>
       <r>  -12.6021    1.0000 </r>
       <r>  -12.4770    1.0000 </r>
       <r>  -12.4655    1.0000 </r>
       <r>  -12.4424    1.0000 </r>
       <r>  -12.1533    1.0000 </r>
       <r>  -12.0359    1.0000 </r>
       <r>  -12.0002    1.0000 </r>
       <r>  -11.9668    1.0000 </r>
       <r>  -11.8797    1.0000 </r>
       <r>  -11.8647    1.0000 </r>
       <r>  -11.8626    1.0000 </r>
       <r>  -11.8534    1.0000 </r>
       <r>  -11.7349    1.0000 </r>
       <r>  -11.6951    1.0000 </r>
       <r>  -11.4353    1.0000 </r>
       <r>  -11.3786    1.0000 </r>
       <r>  -11.3350    1.0000 </r>
       <r>  -11.2983    1.0000 </r>
       <r>  -11.2438    1.0000 </r>
       <r>  -11.1960    1.0000 </r>
       <r>  -11.1647    1.0000 </r>
       <r>  -11.1345    1.0000 </r>
       <r>  -11.0585    1.0000 </r>
       <r>  -11.0419    1.0000 </r>
       <r>  -11.0331    1.0000 </r>
       <r>  -11.0262    1.0000 </r>
       <r>  -10.8233    1.0000 </r>
       <r>  -10.7543    1.0000 </r>
       <r>  -10.5979    1.0000 </r>
       <r>  -10.5643    1.0000 </r>
       <r>  -10.5395    1.0000 </r>
       <r>  -10.5143    1.0000 </r>
       <r>  -10.4812    1.0000 </r>
       <r>  -10.4764    1.0000 </r>
       <r>  -10.3499    1.0000 </r>
       <r>  -10.3444    1.0000 </r>
       <r>  -10.3364    1.0000 </r>
       <r>  -10.3212    1.0000 </r>
       <r>  -10.3128    1.0000 </r>
       <r>  -10.2977    1.0000 </r>
       <r>  -10.0981    1.0000 </r>
       <r>  -10.0692    1.0000 </r>
       <r>  -10.0139    1.0000 </r>
       <r>   -9.9029    1.0000 </r>
       <r>   -9.7776    1.0000 </r>
       <r>   -9.7561    1.0000 </r>
       <r>   -9.6067    1.0000 </r>
       <r>   -9.4894    1.0000 </r>
       <r>   -9.4463    1.0000 </r>
       <r>   -9.2944    1.0000 </r>
       <r>   -9.2192    1.0000 </r>
       <r>   -9.1938    1.0000 </r>
       <r>   -9.1431    1.0000 </r>
       <r>   -9.1403    1.0000 </r>
       <r>   -9.0183    1.0000 </r>
       <r>   -8.9797    1.0000 </r>
       <r>   -8.9569    1.0000 </r>
       <r>   -8.8949    1.0000 </r>
       <r>   -8.8106    1.0000 </r>
       <r>   -8.7549    1.0000 </r>
       <r>   -8.5247    1.0000 </r>
       <r>   -8.5039    1.0000 </r>
       <r>   -8.4814    1.0000 </r>
       <r>   -8.4683    1.0000 </r>
       <r>   -8.3600    1.0000 </r>
       <r>   -8.3097    1.0000 </r>
       <r>   -8.1100    1.0000 </r>
       <r>   -8.1028    1.0000 </r>
       <r>   -8.0993    1.0000 </r>
       <r>   -8.0701    1.0000 </r>
       <r>   -7.9495    1.0000 </r>
       <r>   -7.8688    1.0000 </r>
       <r>   -7.8593    1.0000 </r>
       <r>   -7.7900    1.0000 </r>
       <r>   -7.7768    1.0000 </r>
       <r>   -7.7707    1.0000 </r>
       <r>   -7.7656    1.0000 </r>
       <r>   -7.7567    1.0000 </r>
       <r>   -7.7447    1.0000 </r>
       <r>   -7.5841    1.0000 </r>
       <r>   -7.5303    1.0000 </r>
       <r>   -7.5064    1.0000 </r>
       <r>   -7.2824    1.0000 </r>
       <r>   -7.2623    1.0000 </r>
       <r>   -7.2561    1.0000 </r>
       <r>   -7.1803    1.0000 </r>
       <r>   -7.1268    1.0000 </r>
       <r>   -7.0652    1.0000 </r>
       <r>   -7.0473    1.0000 </r>
       <r>   -6.9373    1.0000 </r>
       <r>   -6.8731    1.0000 </r>
       <r>   -6.8549    1.0000 </r>
       <r>   -6.8280    1.0000 </r>
       <r>   -6.8104    1.0000 </r>
       <r>   -6.7654    1.0000 </r>
       <r>   -6.5067    1.0000 </r>
       <r>   -6.5031    1.0000 </r>
       <r>   -6.5000    1.0000 </r>
       <r>   -6.4968    1.0000 </r>
       <r>   -6.4940    1.0000 </r>
       <r>   -6.4924    1.0000 </r>
       <r>   -6.4159    1.0000 </r>
       <r>   -6.4075    1.0000 </r>
       <r>   -6.4033    1.0000 </r>
       <r>   -6.1880    1.0000 </r>
       <r>   -6.0509    1.0000 </r>
       <r>   -5.7755    1.0000 </r>
       <r>   -5.6410    1.0000 </r>
       <r>   -5.5976    1.0000 </r>
       <r>   -5.5391    1.0000 </r>
       <r>   -3.6287    0.0000 </r>
       <r>   -3.6222    0.0000 </r>
       <r>   -3.6027    0.0000 </r>
       <r>   -3.0983    0.0000 </r>
       <r>   -3.0946    0.0000 </r>
       <r>   -3.0781    0.0000 </r>
       <r>   -2.5901    0.0000 </r>
       <r>   -2.5003    0.0000 </r>
       <r>   -2.4759    0.0000 </r>
       <r>   -2.0467    0.0000 </r>
       <r>   -1.9400    0.0000 </r>
       <r>   -1.8656    0.0000 </r>
       <r>   -1.8233    0.0000 </r>
       <r>   -1.7481    0.0000 </r>
       <r>   -1.6879    0.0000 </r>
       <r>   -1.4501    0.0000 </r>
       <r>   -1.4338    0.0000 </r>
       <r>   -1.4157    0.0000 </r>
       <r>   -1.4105    0.0000 </r>
       <r>   -1.4027    0.0000 </r>
       <r>   -1.3924    0.0000 </r>
       <r>   -1.3567    0.0000 </r>
       <r>   -1.1716    0.0000 </r>
       <r>   -0.9656    0.0000 </r>
       <r>   -0.5386    0.0000 </r>
       <r>   -0.4470    0.0000 </r>
       <r>   -0.4213    0.0000 </r>
       <r>   -0.3431    0.0000 </r>
       <r>   -0.3308    0.0000 </r>
       <r>   -0.2458    0.0000 </r>
       <r>   -0.2405    0.0000 </r>
       <r>   -0.2332    0.0000 </r>
       <r>   -0.0887    0.0000 </r>
       <r>   -0.0502    0.0000 </r>
       <r>    0.0804    0.0000 </r>
       <r>    0.1530    0.0000 </r>
       <r>    0.1712    0.0000 </r>
       <r>    0.2110    0.0000 </r>
       <r>    0.2197    0.0000 </r>
       <r>    0.2289    0.0000 </r>
       <r>    0.3495    0.0000 </r>
       <r>    0.3847    0.0000 </r>
       <r>    0.4085    0.0000 </r>
       <r>    0.4338    0.0000 </r>
       <r>    0.4384    0.0000 </r>
       <r>    0.4535    0.0000 </r>
       <r>    0.4888    0.0000 </r>
       <r>    0.5581    0.0000 </r>
       <r>    0.5824    0.0000 </r>
       <r>    0.6032    0.0000 </r>
       <r>    0.6530    0.0000 </r>
       <r>    0.6961    0.0000 </r>
       <r>    0.7349    0.0000 </r>
       <r>    0.7616    0.0000 </r>
       <r>    0.7826    0.0000 </r>
       <r>    0.7948    0.0000 </r>
       <r>    0.8231    0.0000 </r>
       <r>    0.8271    0.0000 </r>
       <r>    0.8454    0.0000 </r>
       <r>    0.8489    0.0000 </r>
       <r>    0.8726    0.0000 </r>
       <r>    0.9333    0.0000 </r>
       <r>    0.9479    0.0000 </r>
       <r>    0.9693    0.0000 </r>
       <r>    0.9770    0.0000 </r>
       <r>    0.9852    0.0000 </r>
       <r>    0.9972    0.0000 </r>
       <r>    1.0169    0.0000 </r>
       <r>    1.0656    0.0000 </r>
       <r>    1.0719    0.0000 </r>
       <r>    1.0739    0.0000 </r>
      </set>
      <set comment="kpoint 2">
       <r>  -30.8724    1.0000 </r>
       <r>  -30.8699    1.0000 </r>
       <r>  -30.8634    1.0000 </r>
       <r>  -30.8620    1.0000 </r>
       <r>  -30.8526    1.0000 </r>
       <r>  -30.8507    1.0000 </r>
       <r>  -26.5014    1.0000 </r>
       <r>  -26.5009    1.0000 </r>
       <r>  -26.4917    1.0000 </r>
       <r>  -26.4909    1.0000 </r>
       <r>  -26.4809    1.0000 </r>
       <r>  -26.4783    1.0000 </r>
       <r>  -22.8098    1.0000 </r>
       <r>  -22.8064    1.0000 </r>
       <r>  -22.7997    1.0000 </r>
       <r>  -22.0287    1.0000 </r>
       <r>  -21.9593    1.0000 </r>
       <r>  -21.7865    1.0000 </r>
       <r>  -21.7809    1.0000 </r>
       <r>  -21.5421    1.0000 </r>
       <r>  -21.5382    1.0000 </r>
       <r>  -21.4343    1.0000 </r>
       <r>  -21.1100    1.0000 </r>
       <r>  -20.9010    1.0000 </r>
       <r>  -20.8936    1.0000 </r>
       <r>  -20.7880    1.0000 </r>
       <r>  -20.3053    1.0000 </r>
       <r>  -20.3014    1.0000 </r>
       <r>  -19.9783    1.0000 </r>
       <r>  -19.8195    1.0000 </r>
       <r>  -19.8144    1.0000 </r>
       <r>  -19.1626    1.0000 </r>
       <r>  -19.1618    1.0000 </r>
       <r>  -19.1043    1.0000 </r>
       <r>  -18.8303    1.0000 </r>
       <r>  -18.8092    1.0000 </r>
       <r>  -18.6879    1.0000 </r>
       <r>  -18.6517    1.0000 </r>
       <r>  -18.6428    1.0000 </r>
       <r>  -18.6357    1.0000 </r>
       <r>  -18.6189    1.0000 </r>
       <r>  -18.6024    1.0000 </r>
       <r>  -18.4880    1.0000 </r>
       <r>  -18.1174    1.0000 </r>
       <r>  -18.0464    1.0000 </r>
       <r>  -18.0276    1.0000 </r>
       <r>  -17.6283    1.0000 </r>
       <r>  -17.6212    1.0000 </r>
       <r>  -16.4299    1.0000 </r>
       <r>  -16.4034    1.0000 </r>
       <r>  -16.3795    1.0000 </r>
       <r>  -16.3326    1.0000 </r>
       <r>  -16.3256    1.0000 </r>
       <r>  -16.3120    1.0000 </r>
       <r>  -15.7799    1.0000 </r>
       <r>  -15.6945    1.0000 </r>
       <r>  -15.6562    1.0000 </r>
       <r>  -15.6355    1.0000 </r>
       <r>  -15.5184    1.0000 </r>
       <r>  -15.2446    1.0000 </r>
       <r>  -15.2019    1.0000 </r>
       <r>  -15.0607    1.0000 </r>
       <r>  -15.0328    1.0000 </r>
       <r>  -15.0261    1.0000 </r>
       <r>  -15.0023    1.0000 </r>
       <r>  -14.8796    1.0000 </r>
       <r>  -14.4830    1.0000 </r>
       <r>  -14.3926    1.0000 </r>
       <r>  -14.2408    1.0000 </r>
       <r>  -14.1263    1.0000 </r>
       <r>  -14.1027    1.0000 </r>
       <r>  -14.0712    1.0000 </r>
       <r>  -14.0586    1.0000 </r>
       <r>  -13.7345    1.0000 </r>
       <r>  -13.7234    1.0000 </r>
       <r>  -13.7193    1.0000 </r>
       <r>  -13.5772    1.0000 </r>
       <r>  -13.5578    1.0000 </r>
       <r>  -13.5268    1.0000 </r>
       <r>  -13.4864    1.0000 </r>
       <r>  -13.4797    1.0000 </r>
       <r>  -13.4657    1.0000 </r>
       <r>  -13.3348    1.0000 </r>
       <r>  -13.1204    1.0000 </r>
       <r>  -13.0025    1.0000 </r>
       <r>  -12.9727    1.0000 </r>
       <r>  -12.9686    1.0000 </r>
       <r>  -12.7404    1.0000 </r>
       <r>  -12.7290    1.0000 </r>
       <r>  -12.6399    1.0000 </r>
       <r>  -12.6102    1.0000 </r>
       <r>  -12.6021    1.0000 </r>
       <r>  -12.4770    1.0000 </r>
       <r>  -12.4655    1.0000 </r>
       <r>  -12.4424    1.0000 </r>
       <r>  -12.1543    1.0000 </r>
       <r>  -12.0359    1.0000 </r>
       <r>  -12.0002    1.0000 </r>
       <r>  -11.9669    1.0000 </r>
[...]
       <r>   -25.1995     0.0000    24.0000 </r>
       <r>   -25.0822     0.0000    24.0000 </r>
       <r>   -24.9649     0.0000    24.0000 </r>
       <r>   -24.8476     0.0000    24.0000 </r>
       <r>   -24.7303     0.0000    24.0000 </r>
       <r>   -24.6130     0.0000    24.0000 </r>
       <r>   -24.4957     0.0000    24.0000 </r>
       <r>   -24.3784     0.0000    24.0000 </r>
       <r>   -24.2612     0.0000    24.0000 </r>
       <r>   -24.1439     0.0000    24.0000 </r>
       <r>   -24.0266     0.0000    24.0000 </r>
       <r>   -23.9093     0.0000    24.0000 </r>
       <r>   -23.7920     0.0000    24.0000 </r>
       <r>   -23.6747     0.0000    24.0000 </r>
       <r>   -23.5574     0.0000    24.0000 </r>
       <r>   -23.4401     0.0000    24.0000 </r>
       <r>   -23.3228     0.0000    24.0000 </r>
       <r>   -23.2055     0.0000    24.0000 </r>
       <r>   -23.0882     0.0000    24.0000 </r>
       <r>   -22.9709     0.0000    24.0000 </r>
       <r>   -22.8536     0.0000    24.0000 </r>
       <r>   -22.7363    51.1525    30.0000 </r>
       <r>   -22.6190     0.0000    30.0000 </r>
       <r>   -22.5017     0.0000    30.0000 </r>
       <r>   -22.3844     0.0000    30.0000 </r>
       <r>   -22.2671     0.0000    30.0000 </r>
       <r>   -22.1498     0.0000    30.0000 </r>
       <r>   -22.0325     1.2741    30.1494 </r>
       <r>   -21.9152    14.4932    34.0000 </r>
       <r>   -21.7979     0.7544    34.0885 </r>
       <r>   -21.6806    13.2614    38.1222 </r>
       <r>   -21.5633     5.6222    39.6261 </r>
       <r>   -21.4460     0.0735    42.0086 </r>
       <r>   -21.3287     4.5856    42.9045 </r>
       <r>   -21.2114    10.8488    44.8059 </r>
       <r>   -21.0942     6.8005    45.9977 </r>
       <r>   -20.9769     0.0000    46.0000 </r>
       <r>   -20.8596    23.4669    48.7526 </r>
       <r>   -20.7423    16.4825    52.0000 </r>
       <r>   -20.6250     0.0000    52.0000 </r>
       <r>   -20.5077     0.0000    52.0000 </r>
       <r>   -20.3904     0.0000    52.0000 </r>
       <r>   -20.2731    22.7744    54.6714 </r>
       <r>   -20.1558    12.5566    56.5728 </r>
       <r>   -20.0385     3.7756    57.5095 </r>
       <r>   -19.9212     2.5576    58.0000 </r>
       <r>   -19.8039    18.3972    60.1579 </r>
       <r>   -19.6866     2.7126    60.7182 </r>
       <r>   -19.5693     6.0949    61.5816 </r>
       <r>   -19.4520     5.5596    62.5188 </r>
       <r>   -19.3347     2.7720    63.2918 </r>
       <r>   -19.2174     2.2230    63.6941 </r>
       <r>   -19.1001    19.4246    66.1118 </r>
       <r>   -18.9828     2.8913    66.6058 </r>
       <r>   -18.8655    11.6872    68.1709 </r>
       <r>   -18.7482    17.0508    72.0000 </r>
       <r>   -18.6309    64.8587    79.6077 </r>
       <r>   -18.5136     0.0003    84.0000 </r>
       <r>   -18.3963    12.3178    85.9448 </r>
       <r>   -18.2790     6.6331    87.2114 </r>
       <r>   -18.1617     2.7233    87.6861 </r>
       <r>   -18.0444     9.4700    88.9775 </r>
       <r>   -17.9271     2.9822    90.5498 </r>
       <r>   -17.8099     5.1627    91.3056 </r>
       <r>   -17.6926     9.9605    93.0017 </r>
       <r>   -17.5753    22.7344    96.0000 </r>
       <r>   -17.4580     0.0000    96.0000 </r>
       <r>   -17.3407     0.0000    96.0000 </r>
       <r>   -17.2234     0.0000    96.0000 </r>
       <r>   -17.1061     0.0000    96.0000 </r>
       <r>   -16.9888     0.0000    96.0000 </r>
       <r>   -16.8715     0.0000    96.0000 </r>
       <r>   -16.7542     0.0000    96.0000 </r>
       <r>   -16.6369     0.0000    96.0000 </r>
       <r>   -16.5196     0.0000    96.0000 </r>
       <r>   -16.4023    26.8687    99.1516 </r>
       <r>   -16.2850    51.1519   107.9999 </r>
       <r>   -16.1677     0.0000   108.0000 </r>
       <r>   -16.0504     0.0000   108.0000 </r>
       <r>   -15.9331     0.0000   108.0000 </r>
       <r>   -15.8158     0.0073   108.0009 </r>
       <r>   -15.6985    14.4066   111.6898 </r>
       <r>   -15.5812    30.7517   115.8404 </r>
       <r>   -15.4639    11.8712   117.3924 </r>
       <r>   -15.3466     2.0059   118.0020 </r>
       <r>   -15.2293    20.3521   120.7206 </r>
       <r>   -15.1120    11.6092   123.3617 </r>
       <r>   -14.9947    22.2525   127.1768 </r>
       <r>   -14.8774    15.5133   130.3530 </r>
       <r>   -14.7601     0.0000   132.0000 </r>
       <r>   -14.6429     0.0000   132.0000 </r>
       <r>   -14.5256     0.0002   132.0000 </r>
       <r>   -14.4083    11.1165   134.0039 </r>
       <r>   -14.2910    13.1078   136.5042 </r>
       <r>   -14.1737     4.5469   138.0000 </r>
       <r>   -14.0564    62.6162   145.3447 </r>
       <r>   -13.9391     0.0000   146.0000 </r>
       <r>   -13.8218     0.0000   146.0000 </r>
       <r>   -13.7045    50.8888   151.9691 </r>
       <r>   -13.5872     1.7315   152.2031 </r>
       <r>   -13.4699    54.3750   162.3780 </r>
       <r>   -13.3526     0.0126   164.0015 </r>
       <r>   -13.2353    14.7615   166.4315 </r>
       <r>   -13.1180     6.7188   167.9214 </r>
       <r>   -13.0007    10.1770   169.1937 </r>
       <r>   -12.8834     0.0000   174.0000 </r>
       <r>   -12.7661     0.0008   174.0001 </r>
       <r>   -12.6488    16.0608   177.9839 </r>
       <r>   -12.5315    27.8934   183.2718 </r>
       <r>   -12.4142    48.0750   189.6390 </r>
       <r>   -12.2969     8.1365   191.0544 </r>
       <r>   -12.1796     3.4227   191.6348 </r>
       <r>   -12.0623     0.0051   192.0006 </r>
       <r>   -11.9450    45.7511   199.3664 </r>
       <r>   -11.8277    30.2757   203.2846 </r>
       <r>   -11.7104    19.1878   206.8173 </r>
       <r>   -11.5931    11.5192   209.4512 </r>
       <r>   -11.4759    10.6591   211.2503 </r>
       <r>   -11.3586    16.3711   214.1869 </r>
       <r>   -11.2413    18.6389   218.1863 </r>
       <r>   -11.1240    50.6753   225.9440 </r>
       <r>   -11.0067    68.1111   233.9892 </r>
       <r>   -10.8894     0.0000   234.0000 </r>
       <r>   -10.7721    17.0813   236.0036 </r>
       <r>   -10.6548     0.0000   238.0000 </r>
       <r>   -10.5375    46.3652   243.4385 </r>
       <r>   -10.4202    36.9435   250.0000 </r>
       <r>   -10.3029    86.3605   260.1298 </r>
       <r>   -10.1856     0.0000   262.0000 </r>
       <r>   -10.0683    19.0408   264.2334 </r>
       <r>    -9.9510    17.0508   268.0000 </r>
       <r>    -9.8337    16.1956   269.8997 </r>
       <r>    -9.7164    25.2921   274.0000 </r>
       <r>    -9.5991    16.3378   275.9164 </r>
       <r>    -9.4818    15.5959   277.8293 </r>
       <r>    -9.3645    15.1109   280.0058 </r>
       <r>    -9.2472    14.9502   282.4536 </r>
       <r>    -9.1299    40.2457   288.7207 </r>
       <r>    -9.0126     9.3756   291.9664 </r>
       <r>    -8.8953    25.7130   295.4827 </r>
       <r>    -8.7780    34.9190   301.2292 </r>
       <r>    -8.6607     0.0000   302.0000 </r>
       <r>    -8.5434     7.4912   302.8787 </r>
       <r>    -8.4261    39.7704   309.9983 </r>
       <r>    -8.3088    27.0357   313.1712 </r>
       <r>    -8.1916     0.0000   314.0000 </r>
       <r>    -8.0743    56.3429   320.6088 </r>
       <r>    -7.9570     0.5552   322.0651 </r>
       <r>    -7.8397    34.8233   327.6513 </r>
       <r>    -7.7224   102.2901   339.9983 </r>
       <r>    -7.6051     0.0064   340.0008 </r>
       <r>    -7.4878    28.8949   345.3893 </r>
       <r>    -7.3705     0.0000   346.0000 </r>
       <r>    -7.2532    39.1484   350.5920 </r>
       <r>    -7.1359    17.3003   354.0293 </r>
       <r>    -7.0186    44.2535   360.0908 </r>
       <r>    -6.9013     9.6936   362.0037 </r>
       <r>    -6.7840    51.1791   370.0031 </r>
       <r>    -6.6667     0.0000   372.0000 </r>
       <r>    -6.5494     0.0000   372.0000 </r>
       <r>    -6.4321   102.5014   384.0230 </r>
       <r>    -6.3148     0.0000   390.0000 </r>
       <r>    -6.1975     8.2756   390.9707 </r>
       <r>    -6.0802     0.0076   392.0009 </r>
       <r>    -5.9629     8.1859   393.9935 </r>
       <r>    -5.8456     0.0000   394.0000 </r>
       <r>    -5.7283    17.0577   396.0008 </r>
       <r>    -5.6110    13.1312   398.0069 </r>
       <r>    -5.4937    23.3028   402.0000 </r>
       <r>    -5.3764     0.0000   402.0000 </r>
       <r>    -5.2591     0.0000   402.0000 </r>
       <r>    -5.1418     0.0000   402.0000 </r>
       <r>    -5.0246     0.0000   402.0000 </r>
       <r>    -4.9073     0.0000   402.0000 </r>
       <r>    -4.7900     0.0000   402.0000 </r>
       <r>    -4.6727     0.0000   402.0000 </r>
       <r>    -4.5554     0.0000   402.0000 </r>
       <r>    -4.4381     0.0000   402.0000 </r>
       <r>    -4.3208     0.0000   402.0000 </r>
       <r>    -4.2035     0.0000   402.0000 </r>
       <r>    -4.0862     0.0000   402.0000 </r>
       <r>    -3.9689     0.0000   402.0000 </r>
       <r>    -3.8516     0.0000   402.0000 </r>
       <r>    -3.7343     0.0000   402.0000 </r>
       <r>    -3.6170    29.6862   405.4821 </r>
       <r>    -3.4997     0.0000   408.0000 </r>
       <r>    -3.3824     0.0000   408.0000 </r>
       <r>    -3.2651     0.0000   408.0000 </r>
       <r>    -3.1478     0.0000   408.0000 </r>
       <r>    -3.0305    51.1525   414.0000 </r>
       <r>    -2.9132     0.0000   414.0000 </r>
       <r>    -2.7959     0.0000   414.0000 </r>
       <r>    -2.6786     0.0000   414.0000 </r>
       <r>    -2.5613    14.7401   415.7290 </r>
       <r>    -2.4440    18.5296   419.5735 </r>
       <r>    -2.3267     0.0000   420.0000 </r>
       <r>    -2.2094     0.0000   420.0000 </r>
       <r>    -2.0921     0.0000   420.0000 </r>
       <r>    -1.9748    21.7323   422.5491 </r>
       <r>    -1.8575    10.6719   424.9851 </r>
       <r>    -1.7403    15.3381   429.7991 </r>
       <r>    -1.6230    14.8495   431.7418 </r>
       <r>    -1.5057     0.0000   432.0000 </r>
       <r>    -1.3884    99.4857   443.6693 </r>
       <r>    -1.2711     0.0008   446.0001 </r>
       <r>    -1.1538     9.2275   447.3490 </r>
       <r>    -1.0365     0.0000   448.0000 </r>
       <r>    -0.9192    12.4955   449.4657 </r>
       <r>    -0.8019     0.0000   450.0000 </r>
       <r>    -0.6846     0.0000   450.0000 </r>
       <r>    -0.5673     0.0155   450.0018 </r>
       <r>    -0.4500     7.4784   452.8772 </r>
       <r>    -0.3327    18.0209   458.1138 </r>
       <r>    -0.2154    42.7778   464.4177 </r>
       <r>    -0.0981    19.8569   467.1625 </r>
       <r>     0.0192    17.1386   470.0103 </r>
       <r>     0.1365    21.0869   473.7401 </r>
       <r>     0.2538    24.3513   479.4230 </r>
       <r>     0.3711    27.0660   484.1081 </r>
       <r>     0.4884    55.9665   493.3980 </r>
       <r>     0.6057    42.3740   500.9703 </r>
       <r>     0.7230    44.5422   507.3246 </r>
       <r>     0.8403    74.4502   518.9994 </r>
       <r>     0.9576    60.9852   529.3533 </r>
       <r>     1.0749    64.6366   540.4483 </r>
       <r>     1.1922     3.1260   544.0000 </r>
       <r>     1.3095     0.0000   544.0000 </r>
       <r>     1.4267     0.0000   544.0000 </r>
       <r>     1.5440     0.0000   544.0000 </r>
       <r>     1.6613     0.0000   544.0000 </r>
       <r>     1.7786     0.0000   544.0000 </r>
       <r>     1.8959     0.0000   544.0000 </r>
       <r>     2.0132     0.0000   544.0000 </r>
       <r>     2.1305     0.0000   544.0000 </r>
       <r>     2.2478     0.0000   544.0000 </r>
       <r>     2.3651     0.0000   544.0000 </r>
       <r>     2.4824     0.0000   544.0000 </r>
       <r>     2.5997     0.0000   544.0000 </r>
       <r>     2.7170     0.0000   544.0000 </r>
      </set>
     </set>
    </array>
   </total>
  </dos>
 </calculation>
 <structure name="finalpos" >
  <crystal>
   <varray name="basis" >
    <v>      29.90455386       0.05410510       0.00000000 </v>
    <v>     -14.90545046      25.90184371       0.00000000 </v>
    <v>       0.00000000       0.00000000      20.00000000 </v>
   </varray>
   <i name="volume">  15507.79082191 </i>
   <varray name="rec_basis" >
    <v>       0.03340494       0.01922318       0.00000000 </v>
    <v>      -0.00006978       0.03856714       0.00000000 </v>
    <v>       0.00000000       0.00000000       0.05000000 </v>
   </varray>
  </crystal>
  <varray name="positions" >
   <v>       0.05618995       0.52679755       0.38371962 </v>
   <v>       0.53616039       0.05103197       0.63770415 </v>
   <v>       0.53355667       0.48014589       0.63710410 </v>
   <v>       0.96256615       0.47878337       0.64082592 </v>
   <v>       0.49001648       0.95547521       0.38194141 </v>
   <v>       0.48750651       0.52830636       0.38017437 </v>
   <v>       0.03877203       0.52102835       0.57005945 </v>
   <v>       0.06496194       0.53258385       0.50878517 </v>
   <v>       0.03361100       0.51349830       0.45158557 </v>
   <v>       0.14959898       0.60568978       0.54619438 </v>
   <v>       0.12188655       0.56093464       0.50755052 </v>
   <v>       0.14941507       0.54307116       0.46969655 </v>
   <v>       0.20323744       0.63221151       0.54613148 </v>
   <v>       0.20300289       0.56943563       0.47011583 </v>
   <v>       0.28800584       0.64302208       0.50780990 </v>
   <v>       0.31551222       0.69712503       0.50772004 </v>
   <v>       0.36955939       0.72452519       0.50755697 </v>
   <v>       0.39615107       0.69688651       0.50736667 </v>
   <v>       0.36964996       0.64278385       0.50720246 </v>
   <v>       0.31558233       0.61636905       0.50748521 </v>
   <v>       0.39809034       0.78159496       0.50739480 </v>
   <v>       0.38154434       0.80954310       0.46789657 </v>
   <v>       0.40874691       0.86318639       0.46697541 </v>
   <v>       0.45322710       0.89067861       0.50613123 </v>
   <v>       0.46950293       0.86299326       0.54639674 </v>
   <v>       0.44255482       0.80932499       0.54663454 </v>
   <v>       0.23097955       0.61466585       0.50804326 </v>
   <v>       0.39810011       0.61403021       0.50649445 </v>
   <v>       0.38073560       0.56855225       0.54394432 </v>
   <v>       0.40735033       0.54137910       0.54315324 </v>
   <v>       0.45202747       0.55852100       0.50427158 </v>
   <v>       0.46964202       0.60402757       0.46691834 </v>
   <v>       0.44318197       0.63132509       0.46821039 </v>
   <v>       0.73098983       0.36307138       0.51263850 </v>
   <v>       0.70309735       0.30897807       0.51229913 </v>
   <v>       0.64902469       0.28195929       0.51288927 </v>
   <v>       0.62285231       0.31000118       0.51361453 </v>
   <v>       0.64976184       0.36411202       0.51345318 </v>
   <v>       0.70381032       0.39012082       0.51305845 </v>
   <v>       0.62020788       0.22492490       0.51282051 </v>
   <v>       0.63697775       0.19685985       0.47403838 </v>
   <v>       0.61008267       0.14320577       0.47404655 </v>
   <v>       0.56579744       0.11581381       0.51355340 </v>
   <v>       0.54870282       0.14361987       0.55218723 </v>
   <v>       0.57540589       0.19726298       0.55156698 </v>
   <v>       0.78798747       0.39102624       0.51379256 </v>
   <v>       0.81600418       0.37341685       0.47642313 </v>
   <v>       0.86962535       0.39969798       0.47747741 </v>
   <v>       0.89704342       0.44425845       0.51657766 </v>
   <v>       0.86924968       0.46206961       0.55392151 </v>
   <v>       0.81567998       0.43595026       0.55236220 </v>
   <v>       0.62169660       0.39322064       0.51301660 </v>
   <v>       0.63953279       0.43857360       0.47514953 </v>
   <v>       0.61319081       0.46602955       0.47503951 </v>
   <v>       0.56832235       0.44926223       0.51337799 </v>
   <v>       0.55016900       0.40381062       0.55100694 </v>
   <v>       0.57637511       0.37627838       0.55065334 </v>
   <v>       0.53772061       0.05881993       0.51271971 </v>
   <v>       0.52193056       0.02769031       0.57031724 </v>
   <v>       0.49416684       0.97409083       0.56798845 </v>
   <v>       0.54015473       0.47818039       0.51211529 </v>
   <v>       0.52073818       0.49019049       0.56929774 </v>
   <v>       0.49166536       0.51475893       0.56641012 </v>
   <v>       0.95396525       0.47265879       0.51578306 </v>
   <v>       0.98529040       0.49184660       0.57298807 </v>
   <v>       0.48220584       0.94767832       0.50687333 </v>
   <v>       0.49825183       0.97880836       0.44927235 </v>
   <v>       0.52405095       0.03241992       0.45157838 </v>
   <v>       0.48053766       0.52992969       0.50517698 </v>
   <v>       0.50008575       0.51805275       0.44801331 </v>
   <v>       0.52912553       0.49343026       0.45089063 </v>
   <v>       0.98015554       0.48426692       0.45451931 </v>
   <v>       0.08792735       0.57254619       0.37257200 </v>
   <v>       0.04053926       0.49109751       0.34253534 </v>
   <v>       0.50119519       0.03569768       0.67987679 </v>
   <v>       0.58197656       0.08324265       0.64732033 </v>
   <v>       0.57933190       0.49452626       0.64891331 </v>
   <v>       0.49747825       0.45909670       0.67756222 </v>
   <v>       0.93081186       0.43307613       0.65215671 </v>
   <v>       0.97803312       0.51462731       0.68175039 </v>
   <v>       0.50359642       0.92300463       0.37316640 </v>
   <v>       0.47115142       0.97111299       0.33894800 </v>
   <v>       0.44175340       0.51378223       0.36800281 </v>
   <v>       0.52377998       0.54968318       0.34006920 </v>
   <v>       0.06056403       0.53347565       0.61657289 </v>
   <v>       0.12887101       0.62024590       0.57575666 </v>
   <v>       0.12872689       0.50801054       0.43987919 </v>
   <v>       0.22401112       0.66671514       0.57687188 </v>
   <v>       0.22358467       0.55530164       0.43952204 </v>
   <v>       0.34631441       0.55472389       0.57487961 </v>
   <v>       0.39296990       0.50598956       0.57229925 </v>
   <v>       0.45714583       0.66616542       0.43804562 </v>
   <v>       0.50461032       0.61849171       0.43689368 </v>
   <v>       0.45573851       0.78852566       0.57845178 </v>
   <v>       0.50413018       0.88380041       0.57690667 </v>
   <v>       0.39511757       0.88392077       0.43574052 </v>
   <v>       0.34745301       0.78888025       0.43644739 </v>
   <v>       0.29449746       0.71829258       0.50766126 </v>
   <v>       0.29459459       0.57429280       0.50728072 </v>
   <v>       0.43820438       0.71788561       0.50713811 </v>
   <v>       0.89059028       0.38517940       0.44835283 </v>
   <v>       0.79547241       0.33908093       0.44531712 </v>
   <v>       0.88970107       0.49694913       0.58411275 </v>
   <v>       0.79487370       0.45006571       0.58252241 </v>
   <v>       0.67410721       0.45207576       0.44460115 </v>
   <v>       0.62794831       0.50134878       0.44565457 </v>
   <v>       0.56202078       0.34150949       0.58105574 </v>
   <v>       0.51501089       0.38963128       0.58056219 </v>
   <v>       0.56194330       0.21815646       0.58272477 </v>
   <v>       0.51409516       0.12312889       0.58283844 </v>
   <v>       0.62400666       0.12215799       0.44398805 </v>
   <v>       0.67119232       0.21742701       0.44278254 </v>
   <v>       0.72380072       0.28754193       0.51466823 </v>
   <v>       0.72510805       0.43219366       0.51327607 </v>
   <v>       0.58083614       0.28935546       0.51149227 </v>
   <v>       0.48158871       0.95248891       0.61464706 </v>
   <v>       0.47897091       0.52391787       0.61291512 </v>
   <v>       0.53368181       0.05403816       0.40487914 </v>
   <v>       0.54182697       0.48426968       0.40438890 </v>
   <v>       0.95836311       0.47185405       0.40800582 </v>
  </varray>
 </structure>
</modeling>
