<?xml version="1.0" encoding="ISO-8859-1"?>
<modeling>
 <generator>
  <i name="program" type="string">vasp </i>
  <i name="version" type="string">5.4.4.18Apr17-6-g9f103f2a35  </i>
  <i name="subversion" type="string">(build Jun 07 2020 16:50:00) complex            parallel </i>
  <i name="platform" type="string">LinuxIFC </i>
  <i name="date" type="string">2023 02 23 </i>
  <i name="time" type="string">07:19:35 </i>
 </generator>
 <incar>
  <i type="string" name="SYSTEM">Simulation for cell shape cell volume r</i>
  <i type="int" name="ISTART">     1</i>
  <i type="string" name="PREC">high</i>
  <i type="string" name="ALGO">48</i>
  <i type="int" name="ICHARG">    11</i>
  <i type="int" name="NELM">   200</i>
  <i type="int" name="IBRION">    -1</i>
  <i name="EDIFF">      0.00001000</i>
  <i name="EDIFFG">     -0.01000000</i>
  <i type="int" name="NSW">     0</i>
  <i type="int" name="ISIF">     2</i>
  <i name="ENCUT">    500.00000000</i>
  <i name="POTIM">      0.30000000</i>
  <i type="string" name="LREAL">A</i>
  <i type="int" name="ISMEAR">     0</i>
  <i name="SIGMA">      0.01000000</i>
  <i type="int" name="NWRITE">     0</i>
  <i type="logical" name="LWAVE"> F  </i>
  <i type="logical" name="LCHARG"> F  </i>
  <v type="int" name="KPOINT_BSE">    -1     0     0     0</v>
  <i type="int" name="NELM">   200</i>
  <i type="string" name="GGA">PE</i>
 </incar>
 <structure name="primitive_cell" >
  <crystal>
   <varray name="basis" >
    <v>      24.94380169      -0.00515014       0.00000000 </v>
    <v>      -0.02198622      24.99643610       0.00000000 </v>
    <v>       0.00000000       0.00000000      20.00000000 </v>
   </varray>
   <i name="volume">  12470.12063829 </i>
   <varray name="rec_basis" >
    <v>       0.04009013       0.00003526       0.00000000 </v>
    <v>       0.00000826       0.04000571       0.00000000 </v>
    <v>       0.00000000       0.00000000       0.05000000 </v>
   </varray>
  </crystal>
  <varray name="positions" >
   <v>      -0.07092746      -0.05052186      -0.49732988 </v>
   <v>      -0.03746241      -0.02703297      -0.49539369 </v>
   <v>      -0.07054419      -0.10558419      -0.49715680 </v>
   <v>      -0.12249754      -0.03157315       0.49650877 </v>
   <v>      -0.15684106      -0.07756189       0.49287792 </v>
   <v>      -0.12530266      -0.12249125       0.49659534 </v>
   <v>      -0.02503458      -0.13864764      -0.49397083 </v>
   <v>      -0.13817438       0.02234486       0.49206848 </v>
   <v>       0.04547056      -0.06855191      -0.49475485 </v>
   <v>      -0.04818920       0.06461928       0.49248164 </v>
   <v>       0.02873636      -0.12078548      -0.49258707 </v>
   <v>      -0.10307928       0.06675113       0.49035668 </v>
   <v>       0.03465427       0.02301079       0.49316464 </v>
   <v>      -0.20001515      -0.07582052       0.48690291 </v>
   <v>      -0.13816360      -0.16389823       0.49416785 </v>
   <v>      -0.03499635      -0.19744388      -0.49322313 </v>
   <v>      -0.19696900       0.03291796       0.48978764 </v>
   <v>      -0.21099107       0.00359711      -0.41024159 </v>
   <v>      -0.07461366      -0.19746766      -0.39734301 </v>
   <v>       0.06807054       0.04652674       0.49584137 </v>
   <v>       0.10037210      -0.07069887      -0.49241358 </v>
   <v>      -0.03148259       0.11689073       0.49058671 </v>
   <v>      -0.22932125       0.02111702      -0.45466685 </v>
   <v>      -0.06131667      -0.22195329      -0.43934867 </v>
   <v>       0.07435830      -0.15710562      -0.48824070 </v>
   <v>      -0.12174300       0.12200353       0.48713408 </v>
   <v>      -0.01780478      -0.22974102       0.45332582 </v>
   <v>       0.00220991      -0.21103423       0.41081182 </v>
   <v>      -0.22117374       0.05585799       0.43323468 </v>
   <v>      -0.19653672       0.06488737       0.38957507 </v>
   <v>       0.11902578      -0.12591270      -0.48897859 </v>
   <v>      -0.07707612       0.15320814       0.48654533 </v>
   <v>       0.11962216       0.02763053      -0.49748540 </v>
   <v>       0.06766741       0.10159811       0.49608881 </v>
   <v>       0.02223209       0.13473227       0.49241850 </v>
   <v>       0.13543884      -0.02629463      -0.49354816 </v>
   <v>       0.07230136      -0.20039765      -0.48501803 </v>
   <v>      -0.16325388       0.13491495       0.48581838 </v>
   <v>      -0.28396461       0.03282113      -0.45530411 </v>
   <v>      -0.06967879      -0.27724410      -0.43859576 </v>
   <v>      -0.02610947      -0.28480336       0.45433438 </v>
   <v>      -0.27588781       0.06746452       0.43276190 </v>
   <v>       0.16053811      -0.13881003      -0.48751273 </v>
   <v>      -0.07495607       0.19652271       0.48374090 </v>
   <v>       0.15385822       0.07363519      -0.49272053 </v>
   <v>       0.12232150       0.11853365      -0.49655968 </v>
   <v>      -0.30838073       0.02422730      -0.41123542 </v>
   <v>      -0.08987750      -0.29575819      -0.39597824 </v>
   <v>      -0.05210062      -0.30934609      -0.49152682 </v>
   <v>      -0.30797709       0.05653157       0.48868429 </v>
   <v>       0.03278838       0.19348256       0.49259496 </v>
   <v>       0.19428495      -0.03624870      -0.49011539 </v>
   <v>      -0.00295108       0.20628449      -0.41047959 </v>
   <v>      -0.01211314      -0.30945284       0.41278708 </v>
   <v>      -0.29400880       0.08558964       0.38852332 </v>
   <v>       0.19263070      -0.07031307      -0.39103206 </v>
   <v>       0.01744426       0.22509470      -0.45263921 </v>
   <v>       0.21789239      -0.05941114      -0.43344449 </v>
   <v>       0.20972597      -0.00440205       0.41137425 </v>
   <v>       0.19694866       0.07195139      -0.48592698 </v>
   <v>       0.13513680       0.15992074      -0.49341867 </v>
   <v>       0.07145315       0.19421305       0.39606677 </v>
   <v>       0.22765523      -0.02197466       0.45602190 </v>
   <v>       0.05951105       0.21828264       0.43907362 </v>
   <v>      -0.37632877      -0.01039998       0.45814530 </v>
   <v>      -0.36708407       0.06862646       0.48904317 </v>
   <v>      -0.05886921      -0.36928763      -0.49005282 </v>
   <v>      -0.08819090      -0.38077299      -0.45101048 </v>
   <v>      -0.07479717      -0.38404449       0.46215939 </v>
   <v>      -0.38119910       0.07483285      -0.45926506 </v>
   <v>      -0.39707780       0.02473303       0.45744086 </v>
   <v>      -0.37560881       0.10594508       0.46174961 </v>
   <v>       0.01477032      -0.38043182      -0.44109757 </v>
   <v>       0.02894886       0.27970173      -0.45133011 </v>
   <v>       0.27321267      -0.06794376      -0.43071291 </v>
   <v>      -0.00703295      -0.39492580      -0.47992376 </v>
   <v>       0.28275979      -0.03037258       0.45903181 </v>
   <v>       0.07088736       0.27294710       0.44053445 </v>
   <v>      -0.42772089      -0.04680050       0.37582525 </v>
   <v>       0.01737240       0.30358491      -0.40793248 </v>
   <v>       0.29095087      -0.08585767      -0.38606379 </v>
   <v>       0.30632933      -0.05351950      -0.48425105 </v>
   <v>       0.05606446       0.30438170       0.49554541 </v>
   <v>       0.30817956      -0.01876181       0.41699823 </v>
   <v>      -0.45104651       0.01810886       0.47523767 </v>
   <v>       0.09179475       0.29154950       0.39854558 </v>
   <v>      -0.45517135      -0.06282101       0.40767869 </v>
   <v>       0.00141573      -0.44839458      -0.49450763 </v>
   <v>      -0.48019514      -0.02647782       0.44973906 </v>
   <v>      -0.47521482       0.05373628      -0.48567935 </v>
   <v>      -0.48094550      -0.08892305       0.38560603 </v>
   <v>      -0.03281268      -0.47257933       0.46292689 </v>
   <v>      -0.00934160       0.37297900       0.45964145 </v>
   <v>       0.07461321      -0.45662105      -0.43547782 </v>
   <v>       0.06769552       0.36347337       0.49776936 </v>
   <v>       0.36632783      -0.06058644      -0.48084673 </v>
   <v>       0.04564612      -0.47623670      -0.46842549 </v>
   <v>       0.37692047      -0.08798134      -0.43938539 </v>
   <v>       0.06988270       0.37733443      -0.44991088 </v>
   <v>       0.38168309      -0.07881812       0.47299607 </v>
   <v>       0.02618558       0.39320243       0.46114464 </v>
   <v>       0.37833361       0.01473391      -0.43656939 </v>
   <v>       0.10693154       0.37246833       0.47512332 </v>
   <v>       0.46920308      -0.03564907       0.46751814 </v>
   <v>       0.39239694      -0.00868357      -0.47409096 </v>
   <v>       0.47335083       0.04547724      -0.46922800 </v>
   <v>      -0.02362933       0.47646485       0.44746418 </v>
   <v>      -0.08354677       0.47655505       0.37956628 </v>
   <v>       0.44547267      -0.00015180      -0.49125509 </v>
   <v>      -0.04174604       0.42287660       0.37396161 </v>
   <v>       0.45403013       0.07554477      -0.43767417 </v>
   <v>       0.05379908       0.47198597      -0.48249733 </v>
   <v>      -0.05866898       0.45099895       0.40402357 </v>
   <v>       0.01950992       0.44746710       0.47678066 </v>
  </varray>
 </structure>
 <varray name="primitive_index" >
  <v type="int" >        1 </v>
  <v type="int" >       75 </v>
  <v type="int" >       17 </v>
  <v type="int" >       18 </v>
  <v type="int" >       15 </v>
  <v type="int" >       16 </v>
  <v type="int" >       34 </v>
  <v type="int" >       19 </v>
  <v type="int" >        4 </v>
  <v type="int" >        2 </v>
  <v type="int" >       31 </v>
  <v type="int" >       20 </v>
  <v type="int" >       76 </v>
  <v type="int" >       73 </v>
  <v type="int" >       74 </v>
  <v type="int" >       35 </v>
  <v type="int" >       47 </v>
  <v type="int" >       72 </v>
  <v type="int" >       88 </v>
  <v type="int" >        3 </v>
  <v type="int" >       30 </v>
  <v type="int" >       21 </v>
  <v type="int" >       48 </v>
  <v type="int" >       36 </v>
  <v type="int" >       32 </v>
  <v type="int" >       23 </v>
  <v type="int" >       60 </v>
  <v type="int" >      103 </v>
  <v type="int" >       65 </v>
  <v type="int" >       98 </v>
  <v type="int" >       33 </v>
  <v type="int" >       22 </v>
  <v type="int" >       26 </v>
  <v type="int" >       25 </v>
  <v type="int" >       24 </v>
  <v type="int" >       29 </v>
  <v type="int" >       83 </v>
  <v type="int" >       77 </v>
  <v type="int" >       49 </v>
  <v type="int" >       37 </v>
  <v type="int" >       59 </v>
  <v type="int" >       66 </v>
  <v type="int" >       84 </v>
  <v type="int" >       78 </v>
  <v type="int" >       27 </v>
  <v type="int" >       28 </v>
  <v type="int" >       71 </v>
  <v type="int" >       87 </v>
  <v type="int" >       38 </v>
  <v type="int" >       50 </v>
  <v type="int" >       43 </v>
  <v type="int" >       39 </v>
  <v type="int" >       79 </v>
  <v type="int" >      104 </v>
  <v type="int" >       97 </v>
  <v type="int" >       85 </v>
  <v type="int" >       46 </v>
  <v type="int" >       40 </v>
  <v type="int" >      101 </v>
  <v type="int" >       82 </v>
  <v type="int" >       81 </v>
  <v type="int" >       99 </v>
  <v type="int" >       62 </v>
  <v type="int" >       63 </v>
  <v type="int" >      111 </v>
  <v type="int" >       53 </v>
  <v type="int" >       52 </v>
  <v type="int" >       90 </v>
  <v type="int" >      106 </v>
  <v type="int" >       91 </v>
  <v type="int" >       11 </v>
  <v type="int" >      107 </v>
  <v type="int" >       96 </v>
  <v type="int" >       45 </v>
  <v type="int" >       41 </v>
  <v type="int" >        8 </v>
  <v type="int" >       61 </v>
  <v type="int" >       64 </v>
  <v type="int" >      109 </v>
  <v type="int" >       80 </v>
  <v type="int" >       86 </v>
  <v type="int" >       42 </v>
  <v type="int" >       44 </v>
  <v type="int" >      102 </v>
  <v type="int" >       67 </v>
  <v type="int" >      100 </v>
  <v type="int" >       10 </v>
  <v type="int" >       58 </v>
  <v type="int" >       68 </v>
  <v type="int" >        5 </v>
  <v type="int" >      110 </v>
  <v type="int" >       12 </v>
  <v type="int" >      114 </v>
  <v type="int" >       95 </v>
  <v type="int" >       54 </v>
  <v type="int" >       51 </v>
  <v type="int" >       57 </v>
  <v type="int" >       89 </v>
  <v type="int" >       92 </v>
  <v type="int" >      105 </v>
  <v type="int" >       14 </v>
  <v type="int" >       94 </v>
  <v type="int" >      108 </v>
  <v type="int" >        9 </v>
  <v type="int" >        6 </v>
  <v type="int" >       55 </v>
  <v type="int" >       70 </v>
  <v type="int" >      113 </v>
  <v type="int" >       56 </v>
  <v type="int" >      112 </v>
  <v type="int" >       93 </v>
  <v type="int" >        7 </v>
  <v type="int" >       13 </v>
  <v type="int" >       69 </v>
 </varray>
 <kpoints>
  <generation param="listgenerated">
   <i name="divisions" type="int">      20 </i>
   <v>       0.00000000       0.00000000       0.00000000 </v>
   <v>       0.50000000       0.00000000       0.00000000 </v>
   <v>       0.50000000       0.50000000       0.00000000 </v>
   <v>       0.00000000       0.00000000       0.00000000 </v>
  </generation>
  <varray name="kpointlist" >
   <v>       0.00000000       0.00000000       0.00000000 </v>
   <v>       0.02631579       0.00000000       0.00000000 </v>
   <v>       0.05263158       0.00000000       0.00000000 </v>
   <v>       0.07894737       0.00000000       0.00000000 </v>
   <v>       0.10526316       0.00000000       0.00000000 </v>
   <v>       0.13157895       0.00000000       0.00000000 </v>
   <v>       0.15789474       0.00000000       0.00000000 </v>
   <v>       0.18421053       0.00000000       0.00000000 </v>
   <v>       0.21052632       0.00000000       0.00000000 </v>
   <v>       0.23684211       0.00000000       0.00000000 </v>
   <v>       0.26315789       0.00000000       0.00000000 </v>
   <v>       0.28947368       0.00000000       0.00000000 </v>
   <v>       0.31578947       0.00000000       0.00000000 </v>
   <v>       0.34210526       0.00000000       0.00000000 </v>
   <v>       0.36842105       0.00000000       0.00000000 </v>
   <v>       0.39473684       0.00000000       0.00000000 </v>
   <v>       0.42105263       0.00000000       0.00000000 </v>
   <v>       0.44736842       0.00000000       0.00000000 </v>
   <v>       0.47368421       0.00000000       0.00000000 </v>
   <v>       0.50000000       0.00000000       0.00000000 </v>
   <v>       0.50000000       0.00000000       0.00000000 </v>
   <v>       0.50000000       0.02631579       0.00000000 </v>
   <v>       0.50000000       0.05263158       0.00000000 </v>
   <v>       0.50000000       0.07894737       0.00000000 </v>
   <v>       0.50000000       0.10526316       0.00000000 </v>
   <v>       0.50000000       0.13157895       0.00000000 </v>
   <v>       0.50000000       0.15789474       0.00000000 </v>
   <v>       0.50000000       0.18421053       0.00000000 </v>
   <v>       0.50000000       0.21052632       0.00000000 </v>
   <v>       0.50000000       0.23684211       0.00000000 </v>
   <v>       0.50000000       0.26315789       0.00000000 </v>
   <v>       0.50000000       0.28947368       0.00000000 </v>
   <v>       0.50000000       0.31578947       0.00000000 </v>
   <v>       0.50000000       0.34210526       0.00000000 </v>
   <v>       0.50000000       0.36842105       0.00000000 </v>
   <v>       0.50000000       0.39473684       0.00000000 </v>
   <v>       0.50000000       0.42105263       0.00000000 </v>
   <v>       0.50000000       0.44736842       0.00000000 </v>
   <v>       0.50000000       0.47368421       0.00000000 </v>
   <v>       0.50000000       0.50000000       0.00000000 </v>
   <v>       0.50000000       0.50000000       0.00000000 </v>
   <v>       0.47368421       0.47368421       0.00000000 </v>
   <v>       0.44736842       0.44736842       0.00000000 </v>
   <v>       0.42105263       0.42105263       0.00000000 </v>
   <v>       0.39473684       0.39473684       0.00000000 </v>
   <v>       0.36842105       0.36842105       0.00000000 </v>
   <v>       0.34210526       0.34210526       0.00000000 </v>
   <v>       0.31578947       0.31578947       0.00000000 </v>
   <v>       0.28947368       0.28947368       0.00000000 </v>
   <v>       0.26315789       0.26315789       0.00000000 </v>
   <v>       0.23684211       0.23684211       0.00000000 </v>
   <v>       0.21052632       0.21052632       0.00000000 </v>
   <v>       0.18421053       0.18421053       0.00000000 </v>
   <v>       0.15789474       0.15789474       0.00000000 </v>
   <v>       0.13157895       0.13157895       0.00000000 </v>
   <v>       0.10526316       0.10526316       0.00000000 </v>
   <v>       0.07894737       0.07894737       0.00000000 </v>
   <v>       0.05263158       0.05263158       0.00000000 </v>
   <v>       0.02631579       0.02631579       0.00000000 </v>
   <v>       0.00000000       0.00000000       0.00000000 </v>
  </varray>
  <varray name="weights" >
   <v>       0.01666667 </v>
   <v>       0.01666667 </v>
   <v>       0.01666667 </v>
   <v>       0.01666667 </v>
   <v>       0.01666667 </v>
   <v>       0.01666667 </v>
   <v>       0.01666667 </v>
   <v>       0.01666667 </v>
   <v>       0.01666667 </v>
   <v>       0.01666667 </v>
   <v>       0.01666667 </v>
   <v>       0.01666667 </v>
   <v>       0.01666667 </v>
   <v>       0.01666667 </v>
   <v>       0.01666667 </v>
   <v>       0.01666667 </v>
   <v>       0.01666667 </v>
   <v>       0.01666667 </v>
   <v>       0.01666667 </v>
   <v>       0.01666667 </v>
   <v>       0.01666667 </v>
   <v>       0.01666667 </v>
   <v>       0.01666667 </v>
   <v>       0.01666667 </v>
   <v>       0.01666667 </v>
   <v>       0.01666667 </v>
   <v>       0.01666667 </v>
   <v>       0.01666667 </v>
   <v>       0.01666667 </v>
   <v>       0.01666667 </v>
   <v>       0.01666667 </v>
   <v>       0.01666667 </v>
   <v>       0.01666667 </v>
   <v>       0.01666667 </v>
   <v>       0.01666667 </v>
   <v>       0.01666667 </v>
   <v>       0.01666667 </v>
   <v>       0.01666667 </v>
   <v>       0.01666667 </v>
   <v>       0.01666667 </v>
   <v>       0.01666667 </v>
   <v>       0.01666667 </v>
   <v>       0.01666667 </v>
   <v>       0.01666667 </v>
   <v>       0.01666667 </v>
   <v>       0.01666667 </v>
   <v>       0.01666667 </v>
   <v>       0.01666667 </v>
   <v>       0.01666667 </v>
   <v>       0.01666667 </v>
   <v>       0.01666667 </v>
   <v>       0.01666667 </v>
   <v>       0.01666667 </v>
   <v>       0.01666667 </v>
   <v>       0.01666667 </v>
   <v>       0.01666667 </v>
   <v>       0.01666667 </v>
   <v>       0.01666667 </v>
   <v>       0.01666667 </v>
   <v>       0.01666667 </v>
  </varray>
 </kpoints>
 <parameters>
  <separator name="general" >
   <i type="string" name="SYSTEM">Simulation for cell shape cell volume r</i>
   <i type="logical" name="LCOMPAT"> F  </i>
  </separator>
  <separator name="electronic" >
   <i type="string" name="PREC">high</i>
   <i name="ENMAX">    500.00000000</i>
   <i name="ENAUG">    644.87300000</i>
   <i name="EDIFF">      0.00001000</i>
   <i type="int" name="IALGO">    38</i>
   <i type="int" name="IWAVPR">    10</i>
   <i type="int" name="NBANDS">   240</i>
   <i name="NELECT">    338.00000000</i>
   <i type="int" name="TURBO">     0</i>
   <i type="int" name="IRESTART">     0</i>
   <i type="int" name="NREBOOT">     0</i>
   <i type="int" name="NMIN">     0</i>
   <i name="EREF">      0.00000000</i>
   <separator name="electronic smearing" >
    <i type="int" name="ISMEAR">     0</i>
    <i name="SIGMA">      0.01000000</i>
    <i name="KSPACING">      0.50000000</i>
    <i type="logical" name="KGAMMA"> T  </i>
   </separator>
   <separator name="electronic projectors" >
    <i type="logical" name="LREAL"> T  </i>
    <v name="ROPT">     -0.00040000     -0.00040000     -0.00040000</v>
    <i type="int" name="LMAXPAW">  -100</i>
    <i type="int" name="LMAXMIX">     2</i>
    <i type="logical" name="NLSPLINE"> F  </i>
   </separator>
   <separator name="electronic startup" >
    <i type="int" name="ISTART">     1</i>
    <i type="int" name="ICHARG">    11</i>
    <i type="int" name="INIWAV">     1</i>
   </separator>
   <separator name="electronic spin" >
    <i type="int" name="ISPIN">     1</i>
    <i type="logical" name="LNONCOLLINEAR"> F  </i>
    <v name="MAGMOM">      1.00000000      1.00000000      1.00000000      1.00000000      1.00000000      1.00000000      1.00000000      1.00000000      1.00000000      1.00000000      1.00000000      1.00000000      1.00000000      1.00000000      1.00000000      1.00000000      1.00000000      1.00000000      1.00000000      1.00000000
      1.00000000      1.00000000      1.00000000      1.00000000      1.00000000      1.00000000      1.00000000      1.00000000      1.00000000      1.00000000      1.00000000      1.00000000      1.00000000      1.00000000      1.00000000      1.00000000      1.00000000      1.00000000      1.00000000      1.00000000
      1.00000000      1.00000000      1.00000000      1.00000000      1.00000000      1.00000000      1.00000000      1.00000000      1.00000000      1.00000000      1.00000000      1.00000000      1.00000000      1.00000000      1.00000000      1.00000000      1.00000000      1.00000000      1.00000000      1.00000000
      1.00000000      1.00000000      1.00000000      1.00000000      1.00000000      1.00000000      1.00000000      1.00000000      1.00000000      1.00000000      1.00000000      1.00000000      1.00000000      1.00000000      1.00000000      1.00000000      1.00000000      1.00000000      1.00000000      1.00000000
      1.00000000      1.00000000      1.00000000      1.00000000      1.00000000      1.00000000      1.00000000      1.00000000      1.00000000      1.00000000      1.00000000      1.00000000      1.00000000      1.00000000      1.00000000      1.00000000      1.00000000      1.00000000      1.00000000      1.00000000
      1.00000000      1.00000000      1.00000000      1.00000000      1.00000000      1.00000000      1.00000000      1.00000000      1.00000000      1.00000000      1.00000000      1.00000000      1.00000000      1.00000000</v>
    <i name="NUPDOWN">     -1.00000000</i>
    <i type="logical" name="LSORBIT"> F  </i>
    <v name="SAXIS">      0.00000000      0.00000000      1.00000000</v>
    <i type="logical" name="LSPIRAL"> F  </i>
    <v name="QSPIRAL">      0.00000000      0.00000000      0.00000000</v>
    <i type="logical" name="LZEROZ"> F  </i>
   </separator>
   <separator name="electronic exchange-correlation" >
    <i type="logical" name="LASPH"> F  </i>
    <i type="logical" name="LMETAGGA"> F  </i>
   </separator>
   <separator name="electronic convergence" >
    <i type="int" name="NELM">   200</i>
    <i type="int" name="NELMDL">     0</i>
    <i type="int" name="NELMIN">     2</i>
    <i name="ENINI">    500.00000000</i>
    <separator name="electronic convergence detail" >
     <i type="logical" name="LDIAG"> T  </i>
     <i type="logical" name="LSUBROT"> F  </i>
     <i name="WEIMIN">      0.00000000</i>
     <i name="EBREAK">      0.00000001</i>
     <i name="DEPER">      0.30000000</i>
     <i type="int" name="NRMM">     4</i>
     <i name="TIME">      0.40000000</i>
    </separator>
   </separator>
   <separator name="electronic mixer" >
    <i name="AMIX">      0.40000000</i>
    <i name="BMIX">      1.00000000</i>
    <i name="AMIN">      0.10000000</i>
    <i name="AMIX_MAG">      1.60000000</i>
    <i name="BMIX_MAG">      1.00000000</i>
    <separator name="electronic mixer details" >
     <i type="int" name="IMIX">     4</i>
     <i type="logical" name="MIXFIRST"> F  </i>
     <i type="int" name="MAXMIX">   -45</i>
     <i name="WC">    100.00000000</i>
     <i type="int" name="INIMIX">     1</i>
     <i type="int" name="MIXPRE">     1</i>
     <i type="int" name="MREMOVE">     5</i>
    </separator>
   </separator>
   <separator name="electronic dipolcorrection" >
    <i type="logical" name="LDIPOL"> F  </i>
    <i type="logical" name="LMONO"> F  </i>
    <i type="int" name="IDIPOL">     0</i>
    <i name="EPSILON">      1.00000000</i>
    <v name="DIPOL">   -100.00000000   -100.00000000   -100.00000000</v>
    <i name="EFIELD">      0.00000000</i>
   </separator>
  </separator>
  <separator name="grids" >
   <i type="int" name="NGX">   192</i>
   <i type="int" name="NGY">   192</i>
   <i type="int" name="NGZ">   150</i>
   <i type="int" name="NGXF">   280</i>
   <i type="int" name="NGYF">   280</i>
   <i type="int" name="NGZF">   224</i>
   <i type="logical" name="ADDGRID"> F  </i>
  </separator>
  <separator name="ionic" >
   <i type="int" name="NSW">     0</i>
   <i type="int" name="IBRION">    -1</i>
   <i type="int" name="MDALGO">     0</i>
   <i type="int" name="ISIF">     2</i>
   <i name="PSTRESS">      0.00000000</i>
   <i name="EDIFFG">     -0.01000000</i>
   <i type="int" name="NFREE">     0</i>
   <i name="POTIM">      0.30000000</i>
   <i name="SMASS">     -3.00000000</i>
   <i name="SCALEE">      1.00000000</i>
  </separator>
  <separator name="ionic md" >
   <i name="TEBEG">      0.00010000</i>
   <i name="TEEND">      0.00010000</i>
   <i type="int" name="NBLOCK">     1</i>
   <i type="int" name="KBLOCK">     1</i>
   <i type="int" name="NPACO">   256</i>
   <i name="APACO">     16.00000000</i>
  </separator>
  <separator name="symmetry" >
   <i type="int" name="ISYM">     2</i>
   <i name="SYMPREC">      0.00001000</i>
  </separator>
  <separator name="dos" >
   <i type="int" name="LORBIT">     0</i>
   <v name="RWIGS">     -1.00000000     -1.00000000     -1.00000000</v>
   <i type="int" name="NEDOS">   301</i>
   <i name="EMIN">     10.00000000</i>
   <i name="EMAX">    -10.00000000</i>
   <i name="EFERMI">      0.00000000</i>
  </separator>
  <separator name="writing" >
   <i type="int" name="NWRITE">     0</i>
   <i type="logical" name="LWAVE"> F  </i>
   <i type="logical" name="LDOWNSAMPLE"> F  </i>
   <i type="logical" name="LCHARG"> F  </i>
   <i type="logical" name="LPARD"> F  </i>
   <i type="logical" name="LVTOT"> F  </i>
   <i type="logical" name="LVHAR"> F  </i>
   <i type="logical" name="LELF"> F  </i>
   <i type="logical" name="LOPTICS"> F  </i>
   <v name="STM">      0.00000000      0.00000000      0.00000000      0.00000000      0.00000000      0.00000000      0.00000000</v>
  </separator>
  <separator name="performance" >
   <i type="int" name="NPAR">    16</i>
   <i type="int" name="NSIM">     4</i>
   <i type="int" name="NBLK">    -1</i>
   <i type="logical" name="LPLANE"> T  </i>
   <i type="logical" name="LSCALAPACK"> T  </i>
   <i type="logical" name="LSCAAWARE"> F  </i>
   <i type="logical" name="LSCALU"> F  </i>
   <i type="logical" name="LASYNC"> F  </i>
   <i type="logical" name="LORBITALREAL"> F  </i>
  </separator>
  <separator name="miscellaneous" >
   <i type="int" name="IDIOT">     3</i>
   <i type="int" name="ISPECIAL">     0</i>
   <i type="logical" name="LMUSIC"> F  </i>
   <v name="POMASS">     14.00100000     12.01100000      1.00000000</v>
   <v name="DARWINR">      0.00000000      0.00000000      0.00000000</v>
   <v name="DARWINV">      1.00000000      1.00000000      1.00000000</v>
   <i type="logical" name="LCORR"> T  </i>
  </separator>
  <i type="logical" name="GGA_COMPAT"> T  </i>
  <i type="logical" name="LBERRY"> F  </i>
  <i type="int" name="ICORELEVEL">     0</i>
  <i type="logical" name="LDAU"> F  </i>
  <i type="int" name="I_CONSTRAINED_M">     0</i>
  <separator name="electronic exchange-correlation" >
   <i type="string" name="GGA">PE</i>
   <i type="int" name="VOSKOWN">     0</i>
   <i type="logical" name="LHFCALC"> F  </i>
   <i type="string" name="PRECFOCK"></i>
   <i type="logical" name="LSYMGRAD"> F  </i>
   <i type="logical" name="LHFONE"> F  </i>
   <i type="logical" name="LRHFCALC"> F  </i>
   <i type="logical" name="LTHOMAS"> F  </i>
   <i type="logical" name="LMODELHF"> F  </i>
   <i name="ENCUT4O">     -1.00000000</i>
   <i type="int" name="EXXOEP">     0</i>
   <i type="int" name="FOURORBIT">     0</i>
   <i name="AEXX">      0.00000000</i>
   <i name="HFALPHA">      0.00000000</i>
   <i name="MCALPHA">      0.00000000</i>
   <i name="ALDAX">      1.00000000</i>
   <i name="AGGAX">      1.00000000</i>
   <i name="ALDAC">      1.00000000</i>
   <i name="AGGAC">      1.00000000</i>
   <i type="int" name="NKREDX">     1</i>
   <i type="int" name="NKREDY">     1</i>
   <i type="int" name="NKREDZ">     1</i>
   <i type="logical" name="SHIFTRED"> F  </i>
   <i type="logical" name="ODDONLY"> F  </i>
   <i type="logical" name="EVENONLY"> F  </i>
   <i type="int" name="LMAXFOCK">     0</i>
   <i type="int" name="NMAXFOCKAE">     0</i>
   <i type="logical" name="LFOCKAEDFT"> F  </i>
   <i name="HFSCREEN">      0.00000000</i>
   <i name="HFSCREENC">      0.00000000</i>
   <i type="int" name="NBANDSGWLOW">     0</i>
  </separator>
  <separator name="vdW DFT" >
   <i type="logical" name="LUSE_VDW"> F  </i>
   <i name="Zab_VDW">     -0.84910000</i>
   <i name="PARAM1">      0.12340000</i>
   <i name="PARAM2">      1.00000000</i>
   <i name="PARAM3">      0.00000000</i>
  </separator>
  <separator name="model GW" >
   <i type="int" name="MODEL_GW">     0</i>
   <i name="MODEL_EPS0">     65.63221389</i>
   <i name="MODEL_ALPHA">      1.00000000</i>
  </separator>
  <separator name="linear response parameters" >
   <i type="logical" name="LEPSILON"> F  </i>
   <i type="logical" name="LRPA"> F  </i>
   <i type="logical" name="LNABLA"> F  </i>
   <i type="logical" name="LVEL"> F  </i>
   <i type="int" name="KINTER">     0</i>
   <i name="CSHIFT">      0.10000000</i>
   <i name="OMEGAMAX">     -1.00000000</i>
   <i name="DEG_THRESHOLD">      0.00200000</i>
   <i name="RTIME">     -0.10000000</i>
   <i name="WPLASMAI">      0.00000000</i>
   <v name="DFIELD">      0.00000000      0.00000000      0.00000000</v>
   <v name="WPLASMA">      0.00000000      0.00000000      0.00000000      0.00000000      0.00000000      0.00000000      0.00000000      0.00000000      0.00000000</v>
  </separator>
  <separator name="orbital magnetization" >
   <i type="logical" name="NUCIND"> F  </i>
   <v name="MAGPOS">      0.00000000      0.00000000      0.00000000</v>
   <i type="logical" name="LNICSALL"> T  </i>
   <i type="logical" name="ORBITALMAG"> F  </i>
   <i type="logical" name="LMAGBLOCH"> F  </i>
   <i type="logical" name="LCHIMAG"> F  </i>
   <i type="logical" name="LGAUGE"> T  </i>
   <i type="int" name="MAGATOM">     0</i>
   <v name="MAGDIPOL">      0.00000000      0.00000000      0.00000000</v>
   <v name="AVECCONST">      0.00000000      0.00000000      0.00000000</v>
  </separator>
  <separator name="response functions" >
   <i type="logical" name="LADDER"> F  </i>
   <i type="logical" name="LRPAFORCE"> F  </i>
   <i type="logical" name="LFXC"> F  </i>
   <i type="logical" name="LHARTREE"> T  </i>
   <i type="int" name="IBSE">     0</i>
   <v type="int" name="KPOINT">    -1     0     0     0</v>
   <i type="logical" name="LTCTE"> F  </i>
   <i type="logical" name="LTETE"> F  </i>
   <i type="logical" name="LTRIPLET"> F  </i>
   <i type="logical" name="LFXCEPS"> F  </i>
   <i type="logical" name="LFXHEG"> F  </i>
   <i type="int" name="NATURALO">     2</i>
   <i type="logical" name="L2ORDER"> F  </i>
   <i type="logical" name="LMP2LT"> F  </i>
   <i type="logical" name="LUSEW"> F  </i>
   <i name="ENCUTGW">     -2.00000000</i>
   <i name="ENCUTGWSOFT">     -2.00000000</i>
   <i name="ENCUTLF">     -1.00000000</i>
   <i type="int" name="LMAXMP2">    -1</i>
   <i name="SCISSOR">      0.00000000</i>
   <i type="int" name="NOMEGA">     0</i>
   <i type="int" name="NOMEGAR">     0</i>
   <i type="int" name="NBANDSGW">    -1</i>
   <i type="int" name="NBANDSO">    -1</i>
   <i type="int" name="NBANDSV">    -1</i>
   <i type="int" name="NELM">   200</i>
   <i type="int" name="NELMHF">     1</i>
   <i type="int" name="DIM">     3</i>
   <i type="int" name="ANTIRES">     0</i>
   <i name="OMEGAMAX">    -30.00000000</i>
   <i name="OMEGAMIN">    -30.00000000</i>
   <i name="OMEGATL">   -200.00000000</i>
   <i type="int" name="OMEGAGRID">   140</i>
   <i name="CSHIFT">     -0.10000000</i>
   <i type="logical" name="SELFENERGY"> F  </i>
   <i type="logical" name="LSPECTRAL"> F  </i>
   <i type="logical" name="LSPECTRALGW"> F  </i>
   <i type="logical" name="LSINGLES"> F  </i>
   <i type="logical" name="LFERMIGW"> F  </i>
   <i type="logical" name="ODDONLYGW"> F  </i>
   <i type="logical" name="EVENONLYGW"> F  </i>
   <i type="int" name="NKREDLFX">     1</i>
   <i type="int" name="NKREDLFY">     1</i>
   <i type="int" name="NKREDLFZ">     1</i>
   <i type="int" name="MAXMEM">  2800</i>
   <i type="int" name="TELESCOPE">     0</i>
   <i type="int" name="TAUPAR">     1</i>
   <i type="int" name="OMEGAPAR">    -1</i>
   <i name="LAMBDA">      1.00000000</i>
  </separator>
  <separator name="External order field" >
   <i name="OFIELD_KAPPA">      0.00000000</i>
   <v name="OFIELD_K">      0.00000000      0.00000000      0.00000000</v>
   <i name="OFIELD_Q6_NEAR">      0.00000000</i>
   <i name="OFIELD_Q6_FAR">      0.00000000</i>
   <i name="OFIELD_A">      0.00000000</i>
  </separator>
  <separator name="solvation model" >
   <i type="logical" name="LSOL"> F  </i>
  </separator>
 </parameters>
 <atominfo>
  <atoms>     114 </atoms>
  <types>       3 </types>
  <array name="atoms" >
   <dimension dim="1">ion</dimension>
   <field type="string">element</field>
   <field type="int">atomtype</field>
   <set>
    <rc><c>N </c><c>   1</c></rc>
    <rc><c>N </c><c>   1</c></rc>
    <rc><c>N </c><c>   1</c></rc>
    <rc><c>N </c><c>   1</c></rc>
    <rc><c>N </c><c>   1</c></rc>
    <rc><c>N </c><c>   1</c></rc>
    <rc><c>N </c><c>   1</c></rc>
    <rc><c>N </c><c>   1</c></rc>
    <rc><c>N </c><c>   1</c></rc>
    <rc><c>N </c><c>   1</c></rc>
    <rc><c>N </c><c>   1</c></rc>
    <rc><c>N </c><c>   1</c></rc>
    <rc><c>N </c><c>   1</c></rc>
    <rc><c>N </c><c>   1</c></rc>
    <rc><c>C </c><c>   2</c></rc>
    <rc><c>C </c><c>   2</c></rc>
    <rc><c>C </c><c>   2</c></rc>
    <rc><c>C </c><c>   2</c></rc>
    <rc><c>C </c><c>   2</c></rc>
    <rc><c>C </c><c>   2</c></rc>
    <rc><c>C </c><c>   2</c></rc>
    <rc><c>C </c><c>   2</c></rc>
    <rc><c>C </c><c>   2</c></rc>
    <rc><c>C </c><c>   2</c></rc>
    <rc><c>C </c><c>   2</c></rc>
    <rc><c>C </c><c>   2</c></rc>
    <rc><c>C </c><c>   2</c></rc>
    <rc><c>C </c><c>   2</c></rc>
    <rc><c>C </c><c>   2</c></rc>
    <rc><c>C </c><c>   2</c></rc>
    <rc><c>C </c><c>   2</c></rc>
    <rc><c>C </c><c>   2</c></rc>
    <rc><c>C </c><c>   2</c></rc>
    <rc><c>C </c><c>   2</c></rc>
    <rc><c>C </c><c>   2</c></rc>
    <rc><c>C </c><c>   2</c></rc>
    <rc><c>C </c><c>   2</c></rc>
    <rc><c>C </c><c>   2</c></rc>
    <rc><c>C </c><c>   2</c></rc>
    <rc><c>C </c><c>   2</c></rc>
    <rc><c>C </c><c>   2</c></rc>
    <rc><c>C </c><c>   2</c></rc>
    <rc><c>C </c><c>   2</c></rc>
    <rc><c>C </c><c>   2</c></rc>
    <rc><c>C </c><c>   2</c></rc>
    <rc><c>C </c><c>   2</c></rc>
    <rc><c>C </c><c>   2</c></rc>
    <rc><c>C </c><c>   2</c></rc>
    <rc><c>C </c><c>   2</c></rc>
    <rc><c>C </c><c>   2</c></rc>
    <rc><c>C </c><c>   2</c></rc>
    <rc><c>C </c><c>   2</c></rc>
    <rc><c>C </c><c>   2</c></rc>
    <rc><c>C </c><c>   2</c></rc>
    <rc><c>C </c><c>   2</c></rc>
    <rc><c>C </c><c>   2</c></rc>
    <rc><c>C </c><c>   2</c></rc>
    <rc><c>C </c><c>   2</c></rc>
    <rc><c>C </c><c>   2</c></rc>
    <rc><c>C </c><c>   2</c></rc>
    <rc><c>C </c><c>   2</c></rc>
    <rc><c>C </c><c>   2</c></rc>
    <rc><c>C </c><c>   2</c></rc>
    <rc><c>C </c><c>   2</c></rc>
    <rc><c>C </c><c>   2</c></rc>
    <rc><c>C </c><c>   2</c></rc>
    <rc><c>C </c><c>   2</c></rc>
    <rc><c>C </c><c>   2</c></rc>
    <rc><c>C </c><c>   2</c></rc>
    <rc><c>C </c><c>   2</c></rc>
    <rc><c>H </c><c>   3</c></rc>
    <rc><c>H </c><c>   3</c></rc>
    <rc><c>H </c><c>   3</c></rc>
    <rc><c>H </c><c>   3</c></rc>
    <rc><c>H </c><c>   3</c></rc>
    <rc><c>H </c><c>   3</c></rc>
    <rc><c>H </c><c>   3</c></rc>
    <rc><c>H </c><c>   3</c></rc>
    <rc><c>H </c><c>   3</c></rc>
    <rc><c>H </c><c>   3</c></rc>
    <rc><c>H </c><c>   3</c></rc>
    <rc><c>H </c><c>   3</c></rc>
    <rc><c>H </c><c>   3</c></rc>
    <rc><c>H </c><c>   3</c></rc>
    <rc><c>H </c><c>   3</c></rc>
    <rc><c>H </c><c>   3</c></rc>
    <rc><c>H </c><c>   3</c></rc>
    <rc><c>H </c><c>   3</c></rc>
    <rc><c>H </c><c>   3</c></rc>
    <rc><c>H </c><c>   3</c></rc>
    <rc><c>H </c><c>   3</c></rc>
    <rc><c>H </c><c>   3</c></rc>
    <rc><c>H </c><c>   3</c></rc>
    <rc><c>H </c><c>   3</c></rc>
    <rc><c>H </c><c>   3</c></rc>
    <rc><c>H </c><c>   3</c></rc>
    <rc><c>H </c><c>   3</c></rc>
    <rc><c>H </c><c>   3</c></rc>
    <rc><c>H </c><c>   3</c></rc>
    <rc><c>H </c><c>   3</c></rc>
    <rc><c>H </c><c>   3</c></rc>
    <rc><c>H </c><c>   3</c></rc>
    <rc><c>H </c><c>   3</c></rc>
    <rc><c>H </c><c>   3</c></rc>
    <rc><c>H </c><c>   3</c></rc>
    <rc><c>H </c><c>   3</c></rc>
    <rc><c>H </c><c>   3</c></rc>
    <rc><c>H </c><c>   3</c></rc>
    <rc><c>H </c><c>   3</c></rc>
    <rc><c>H </c><c>   3</c></rc>
    <rc><c>H </c><c>   3</c></rc>
    <rc><c>H </c><c>   3</c></rc>
    <rc><c>H </c><c>   3</c></rc>
    <rc><c>H </c><c>   3</c></rc>
   </set>
  </array>
  <array name="atomtypes" >
   <dimension dim="1">type</dimension>
   <field type="int">atomspertype</field>
   <field type="string">element</field>
   <field>mass</field>
   <field>valence</field>
   <field type="string">pseudopotential</field>
   <set>
    <rc><c>  14</c><c>N </c><c>     14.00100000</c><c>      5.00000000</c><c>  PAW_PBE N 08Apr2002                   </c></rc>
    <rc><c>  56</c><c>C </c><c>     12.01100000</c><c>      4.00000000</c><c>  PAW_PBE C 08Apr2002                   </c></rc>
    <rc><c>  44</c><c>H </c><c>      1.00000000</c><c>      1.00000000</c><c>  PAW_PBE H 15Jun2001                   </c></rc>
   </set>
  </array>
 </atominfo>
 <structure name="initialpos" >
  <crystal>
   <varray name="basis" >
    <v>      24.94380169      -0.00515014       0.00000000 </v>
    <v>      -0.02198622      24.99643610       0.00000000 </v>
    <v>       0.00000000       0.00000000      20.00000000 </v>
   </varray>
   <i name="volume">  12470.12063829 </i>
   <varray name="rec_basis" >
    <v>       0.04009013       0.00003526       0.00000000 </v>
    <v>       0.00000826       0.04000571       0.00000000 </v>
    <v>       0.00000000       0.00000000       0.05000000 </v>
   </varray>
  </crystal>
  <varray name="positions" >
   <v>       0.92907254       0.94947814       0.50267012 </v>
   <v>       0.95181080       0.06461928       0.49248164 </v>
   <v>       0.06807054       0.04652674       0.49584137 </v>
   <v>       0.04547056       0.93144809       0.50524515 </v>
   <v>       0.52478518       0.05373628       0.51432065 </v>
   <v>       0.39239694       0.99131643       0.52590904 </v>
   <v>       0.05379908       0.47198597       0.51750267 </v>
   <v>       0.99296705       0.60507420       0.52007624 </v>
   <v>       0.46920308       0.96435093       0.46751814 </v>
   <v>       0.54482865       0.93717899       0.40767869 </v>
   <v>       0.60292220       0.02473303       0.45744086 </v>
   <v>       0.96718732       0.52742067       0.46292689 </v>
   <v>       0.94133102       0.45099895       0.40402357 </v>
   <v>       0.02618558       0.39320243       0.46114464 </v>
   <v>       0.84315894       0.92243811       0.49287792 </v>
   <v>       0.87469734       0.87750875       0.49659534 </v>
   <v>       0.92945581       0.89441581       0.50284320 </v>
   <v>       0.87750246       0.96842685       0.49650877 </v>
   <v>       0.86182562       0.02234486       0.49206848 </v>
   <v>       0.89692072       0.06675113       0.49035668 </v>
   <v>       0.96851741       0.11689073       0.49058671 </v>
   <v>       0.92292388       0.15320814       0.48654533 </v>
   <v>       0.87825700       0.12200353       0.48713408 </v>
   <v>       0.02223209       0.13473227       0.49241850 </v>
   <v>       0.06766741       0.10159811       0.49608881 </v>
   <v>       0.11962216       0.02763053       0.50251460 </v>
   <v>       0.15385822       0.07363519       0.50727947 </v>
   <v>       0.12232150       0.11853365       0.50344032 </v>
   <v>       0.13543884       0.97370537       0.50645184 </v>
   <v>       0.10037210       0.92930113       0.50758642 </v>
   <v>       0.02873636       0.87921452       0.50741293 </v>
   <v>       0.07435830       0.84289438       0.51175930 </v>
   <v>       0.11902578       0.87408730       0.51102141 </v>
   <v>       0.97496542       0.86135236       0.50602917 </v>
   <v>       0.96500365       0.80255612       0.50677687 </v>
   <v>       0.93868333       0.77804671       0.56065133 </v>
   <v>       0.93032121       0.72275590       0.56140424 </v>
   <v>       0.94789938       0.69065391       0.50847318 </v>
   <v>       0.19428495       0.96375130       0.50988461 </v>
   <v>       0.21789239       0.94058886       0.56655551 </v>
   <v>       0.27321267       0.93205624       0.56928709 </v>
   <v>       0.30632933       0.94648050       0.51574895 </v>
   <v>       0.03278838       0.19348256       0.49259496 </v>
   <v>       0.05606446       0.30438170       0.49554541 </v>
   <v>       0.02894886       0.27970173       0.54866989 </v>
   <v>       0.01744426       0.22509470       0.54736079 </v>
   <v>       0.80303100       0.03291796       0.48978764 </v>
   <v>       0.77067875       0.02111702       0.54533315 </v>
   <v>       0.71603539       0.03282113       0.54469589 </v>
   <v>       0.69202291       0.05653157       0.48868429 </v>
   <v>       0.36632783       0.93941356       0.51915327 </v>
   <v>       0.94113079       0.63071237       0.50994718 </v>
   <v>       0.63291593       0.06862646       0.48904317 </v>
   <v>       0.06769552       0.36347337       0.49776936 </v>
   <v>       0.47335083       0.04547724       0.53077200 </v>
   <v>       0.44547267       0.99984820       0.50874491 </v>
   <v>       0.04564612       0.52376330       0.53157451 </v>
   <v>       0.00141573       0.55160542       0.50549237 </v>
   <v>       0.97389053       0.71519664       0.45433438 </v>
   <v>       0.98219522       0.77025898       0.45332582 </v>
   <v>       0.28275979       0.96962742       0.45903181 </v>
   <v>       0.22765523       0.97802534       0.45602190 </v>
   <v>       0.05951105       0.21828264       0.43907362 </v>
   <v>       0.07088736       0.27294710       0.44053445 </v>
   <v>       0.77882626       0.05585799       0.43323468 </v>
   <v>       0.72411219       0.06746452       0.43276190 </v>
   <v>       0.54895349       0.01810886       0.47523767 </v>
   <v>       0.51980486       0.97352218       0.44973906 </v>
   <v>       0.01950992       0.44746710       0.47678066 </v>
   <v>       0.97637067       0.47646485       0.44746418 </v>
   <v>       0.69161927       0.02422730       0.58876458 </v>
   <v>       0.78900893       0.00359711       0.58975841 </v>
   <v>       0.79998485       0.92417948       0.48690291 </v>
   <v>       0.86183640       0.83610177       0.49416785 </v>
   <v>       0.96253759       0.97296703       0.50460631 </v>
   <v>       0.03465427       0.02301079       0.49316464 </v>
   <v>       0.83674612       0.13491495       0.48581838 </v>
   <v>       0.92504393       0.19652271       0.48374090 </v>
   <v>       0.99704892       0.20628449       0.58952041 </v>
   <v>       0.01737240       0.30358491       0.59206752 </v>
   <v>       0.13513680       0.15992074       0.50658133 </v>
   <v>       0.19694866       0.07195139       0.51407302 </v>
   <v>       0.07230136       0.79960235       0.51498197 </v>
   <v>       0.16053811       0.86118997       0.51248727 </v>
   <v>       0.19263070       0.92968693       0.60896794 </v>
   <v>       0.29095087       0.91414233       0.61393621 </v>
   <v>       0.91012250       0.70424181       0.60402176 </v>
   <v>       0.92538634       0.80253234       0.60265699 </v>
   <v>       0.37692047       0.91201866       0.56061461 </v>
   <v>       0.91180910       0.61922701       0.54898952 </v>
   <v>       0.61880090       0.07483285       0.54073494 </v>
   <v>       0.06988270       0.37733443       0.55008912 </v>
   <v>       0.45403013       0.07554477       0.56232583 </v>
   <v>       0.37833361       0.01473391       0.56343061 </v>
   <v>       0.07461321       0.54337895       0.56452218 </v>
   <v>       0.01477032       0.61956818       0.55890243 </v>
   <v>       0.70599120       0.08558964       0.38852332 </v>
   <v>       0.80346328       0.06488737       0.38957507 </v>
   <v>       0.07145315       0.19421305       0.39606677 </v>
   <v>       0.09179475       0.29154950       0.39854558 </v>
   <v>       0.20972597       0.99559795       0.41137425 </v>
   <v>       0.30817956       0.98123819       0.41699823 </v>
   <v>       0.00220991       0.78896577       0.41081182 </v>
   <v>       0.98788686       0.69054716       0.41278708 </v>
   <v>       0.38168309       0.92118188       0.47299607 </v>
   <v>       0.92520283       0.61595551       0.46215939 </v>
   <v>       0.62439119       0.10594508       0.46174961 </v>
   <v>       0.10693154       0.37246833       0.47512332 </v>
   <v>       0.57227911       0.95319950       0.37582525 </v>
   <v>       0.51905450       0.91107695       0.38560603 </v>
   <v>       0.62367123       0.98960002       0.45814530 </v>
   <v>       0.95825396       0.42287660       0.37396161 </v>
   <v>       0.91645323       0.47655505       0.37956628 </v>
   <v>       0.99065840       0.37297900       0.45964145 </v>
  </varray>
 </structure>
 <calculation>
  <scstep>
   <time name="dav">  241.19  243.53</time>
   <time name="total">  241.41  243.76</time>
   <energy>
    <i name="alphaZ">     42.25458229 </i>
    <i name="ewald">  42368.61968156 </i>
    <i name="hartreedc"> -52645.11637692 </i>
    <i name="XCdc">   1177.14873490 </i>
    <i name="pawpsdc">  31136.35942529 </i>
    <i name="pawaedc"> -31195.96359975 </i>
    <i name="eentropy">     -0.00000000 </i>
    <i name="bandstr">  -4156.83105681 </i>
    <i name="atom">  12493.20242073 </i>
    <i name="e_fr_energy">   -780.32618871 </i>
    <i name="e_wo_entrp">   -780.32618871 </i>
    <i name="e_0_energy">   -780.32618871 </i>
   </energy>
  </scstep>
  <scstep>
   <time name="dav">  282.20  284.93</time>
   <time name="total">  282.22  284.95</time>
   <energy>
    <i name="e_fr_energy">   -780.91474670 </i>
    <i name="e_wo_entrp">   -780.91474670 </i>
    <i name="e_0_energy">   -780.91474670 </i>
   </energy>
  </scstep>
  <scstep>
   <time name="dav">  298.46  301.41</time>
   <time name="total">  298.47  301.42</time>
   <energy>
    <i name="e_fr_energy">   -780.93079265 </i>
    <i name="e_wo_entrp">   -780.93079265 </i>
    <i name="e_0_energy">   -780.93079265 </i>
   </energy>
  </scstep>
  <scstep>
   <time name="dav">  278.05  280.84</time>
   <time name="total">  278.06  280.85</time>
   <energy>
    <i name="e_fr_energy">   -780.93107762 </i>
    <i name="e_wo_entrp">   -780.93107762 </i>
    <i name="e_0_energy">   -780.93107762 </i>
   </energy>
  </scstep>
  <scstep>
   <time name="dav">  264.66  267.36</time>
   <time name="total">  264.67  267.37</time>
   <energy>
    <i name="e_fr_energy">   -780.93109093 </i>
    <i name="e_wo_entrp">   -780.93109093 </i>
    <i name="e_0_energy">   -780.93109093 </i>
   </energy>
  </scstep>
  <scstep>
   <time name="dav">  217.84  220.03</time>
   <time name="total">  217.86  220.05</time>
   <energy>
    <i name="alphaZ">     42.25458229 </i>
    <i name="ewald">  42368.61968156 </i>
    <i name="hartreedc"> -52645.11637692 </i>
    <i name="XCdc">   1177.14873490 </i>
    <i name="pawpsdc">  31136.35942529 </i>
    <i name="pawaedc"> -31195.96359975 </i>
    <i name="eentropy">     -0.00000000 </i>
    <i name="bandstr">  -4157.43595947 </i>
    <i name="atom">  12493.20242073 </i>
    <i name="e_fr_energy">   -780.93109137 </i>
    <i name="e_wo_entrp">   -780.93109137 </i>
    <i name="e_0_energy">   -780.93109137 </i>
   </energy>
  </scstep>
  <structure>
   <crystal>
    <varray name="basis" >
     <v>      24.94380169      -0.00515014       0.00000000 </v>
     <v>      -0.02198622      24.99643610       0.00000000 </v>
     <v>       0.00000000       0.00000000      20.00000000 </v>
    </varray>
    <i name="volume">  12470.12063829 </i>
    <varray name="rec_basis" >
     <v>       0.04009013       0.00003526       0.00000000 </v>
     <v>       0.00000826       0.04000571       0.00000000 </v>
     <v>       0.00000000       0.00000000       0.05000000 </v>
    </varray>
   </crystal>
   <varray name="positions" >
    <v>       0.92907254       0.94947814       0.50267012 </v>
    <v>       0.95181080       0.06461928       0.49248164 </v>
    <v>       0.06807054       0.04652674       0.49584137 </v>
    <v>       0.04547056       0.93144809       0.50524515 </v>
    <v>       0.52478518       0.05373628       0.51432065 </v>
    <v>       0.39239694       0.99131643       0.52590904 </v>
    <v>       0.05379908       0.47198597       0.51750267 </v>
    <v>       0.99296705       0.60507420       0.52007624 </v>
    <v>       0.46920308       0.96435093       0.46751814 </v>
    <v>       0.54482865       0.93717899       0.40767869 </v>
    <v>       0.60292220       0.02473303       0.45744086 </v>
    <v>       0.96718732       0.52742067       0.46292689 </v>
    <v>       0.94133102       0.45099895       0.40402357 </v>
    <v>       0.02618558       0.39320243       0.46114464 </v>
    <v>       0.84315894       0.92243811       0.49287792 </v>
    <v>       0.87469734       0.87750875       0.49659534 </v>
    <v>       0.92945581       0.89441581       0.50284320 </v>
    <v>       0.87750246       0.96842685       0.49650877 </v>
    <v>       0.86182562       0.02234486       0.49206848 </v>
    <v>       0.89692072       0.06675113       0.49035668 </v>
    <v>       0.96851741       0.11689073       0.49058671 </v>
    <v>       0.92292388       0.15320814       0.48654533 </v>
    <v>       0.87825700       0.12200353       0.48713408 </v>
    <v>       0.02223209       0.13473227       0.49241850 </v>
    <v>       0.06766741       0.10159811       0.49608881 </v>
    <v>       0.11962216       0.02763053       0.50251460 </v>
    <v>       0.15385822       0.07363519       0.50727947 </v>
    <v>       0.12232150       0.11853365       0.50344032 </v>
    <v>       0.13543884       0.97370537       0.50645184 </v>
    <v>       0.10037210       0.92930113       0.50758642 </v>
    <v>       0.02873636       0.87921452       0.50741293 </v>
    <v>       0.07435830       0.84289438       0.51175930 </v>
    <v>       0.11902578       0.87408730       0.51102141 </v>
    <v>       0.97496542       0.86135236       0.50602917 </v>
    <v>       0.96500365       0.80255612       0.50677687 </v>
    <v>       0.93868333       0.77804671       0.56065133 </v>
    <v>       0.93032121       0.72275590       0.56140424 </v>
    <v>       0.94789938       0.69065391       0.50847318 </v>
    <v>       0.19428495       0.96375130       0.50988461 </v>
    <v>       0.21789239       0.94058886       0.56655551 </v>
    <v>       0.27321267       0.93205624       0.56928709 </v>
    <v>       0.30632933       0.94648050       0.51574895 </v>
    <v>       0.03278838       0.19348256       0.49259496 </v>
    <v>       0.05606446       0.30438170       0.49554541 </v>
    <v>       0.02894886       0.27970173       0.54866989 </v>
    <v>       0.01744426       0.22509470       0.54736079 </v>
    <v>       0.80303100       0.03291796       0.48978764 </v>
    <v>       0.77067875       0.02111702       0.54533315 </v>
    <v>       0.71603539       0.03282113       0.54469589 </v>
    <v>       0.69202291       0.05653157       0.48868429 </v>
    <v>       0.36632783       0.93941356       0.51915327 </v>
    <v>       0.94113079       0.63071237       0.50994718 </v>
    <v>       0.63291593       0.06862646       0.48904317 </v>
    <v>       0.06769552       0.36347337       0.49776936 </v>
    <v>       0.47335083       0.04547724       0.53077200 </v>
    <v>       0.44547267       0.99984820       0.50874491 </v>
    <v>       0.04564612       0.52376330       0.53157451 </v>
    <v>       0.00141573       0.55160542       0.50549237 </v>
    <v>       0.97389053       0.71519664       0.45433438 </v>
    <v>       0.98219522       0.77025898       0.45332582 </v>
    <v>       0.28275979       0.96962742       0.45903181 </v>
    <v>       0.22765523       0.97802534       0.45602190 </v>
    <v>       0.05951105       0.21828264       0.43907362 </v>
    <v>       0.07088736       0.27294710       0.44053445 </v>
    <v>       0.77882626       0.05585799       0.43323468 </v>
    <v>       0.72411219       0.06746452       0.43276190 </v>
    <v>       0.54895349       0.01810886       0.47523767 </v>
    <v>       0.51980486       0.97352218       0.44973906 </v>
    <v>       0.01950992       0.44746710       0.47678066 </v>
    <v>       0.97637067       0.47646485       0.44746418 </v>
    <v>       0.69161927       0.02422730       0.58876458 </v>
    <v>       0.78900893       0.00359711       0.58975841 </v>
    <v>       0.79998485       0.92417948       0.48690291 </v>
    <v>       0.86183640       0.83610177       0.49416785 </v>
    <v>       0.96253759       0.97296703       0.50460631 </v>
    <v>       0.03465427       0.02301079       0.49316464 </v>
    <v>       0.83674612       0.13491495       0.48581838 </v>
    <v>       0.92504393       0.19652271       0.48374090 </v>
    <v>       0.99704892       0.20628449       0.58952041 </v>
    <v>       0.01737240       0.30358491       0.59206752 </v>
    <v>       0.13513680       0.15992074       0.50658133 </v>
    <v>       0.19694866       0.07195139       0.51407302 </v>
    <v>       0.07230136       0.79960235       0.51498197 </v>
    <v>       0.16053811       0.86118997       0.51248727 </v>
    <v>       0.19263070       0.92968693       0.60896794 </v>
    <v>       0.29095087       0.91414233       0.61393621 </v>
    <v>       0.91012250       0.70424181       0.60402176 </v>
    <v>       0.92538634       0.80253234       0.60265699 </v>
    <v>       0.37692047       0.91201866       0.56061461 </v>
    <v>       0.91180910       0.61922701       0.54898952 </v>
    <v>       0.61880090       0.07483285       0.54073494 </v>
    <v>       0.06988270       0.37733443       0.55008912 </v>
    <v>       0.45403013       0.07554477       0.56232583 </v>
    <v>       0.37833361       0.01473391       0.56343061 </v>
    <v>       0.07461321       0.54337895       0.56452218 </v>
    <v>       0.01477032       0.61956818       0.55890243 </v>
    <v>       0.70599120       0.08558964       0.38852332 </v>
    <v>       0.80346328       0.06488737       0.38957507 </v>
    <v>       0.07145315       0.19421305       0.39606677 </v>
    <v>       0.09179475       0.29154950       0.39854558 </v>
    <v>       0.20972597       0.99559795       0.41137425 </v>
    <v>       0.30817956       0.98123819       0.41699823 </v>
    <v>       0.00220991       0.78896577       0.41081182 </v>
    <v>       0.98788686       0.69054716       0.41278708 </v>
    <v>       0.38168309       0.92118188       0.47299607 </v>
    <v>       0.92520283       0.61595551       0.46215939 </v>
    <v>       0.62439119       0.10594508       0.46174961 </v>
    <v>       0.10693154       0.37246833       0.47512332 </v>
    <v>       0.57227911       0.95319950       0.37582525 </v>
    <v>       0.51905450       0.91107695       0.38560603 </v>
    <v>       0.62367123       0.98960002       0.45814530 </v>
    <v>       0.95825396       0.42287660       0.37396161 </v>
    <v>       0.91645323       0.47655505       0.37956628 </v>
    <v>       0.99065840       0.37297900       0.45964145 </v>
   </varray>
  </structure>
  <varray name="forces" >
   <v>       0.00112196      -0.00018156      -0.00022584 </v>
   <v>      -0.00069622      -0.00020346       0.00175533 </v>
   <v>      -0.00236063      -0.00102075      -0.00055024 </v>
   <v>       0.00039699      -0.00015613      -0.00076838 </v>
   <v>       0.00032036      -0.00182640      -0.00159333 </v>
   <v>      -0.00289969       0.00112746      -0.00180901 </v>
   <v>       0.00165423       0.00261264      -0.00021653 </v>
   <v>      -0.00071727       0.00270468       0.00160941 </v>
   <v>       0.00149580      -0.00120764       0.00209486 </v>
   <v>       0.00867221      -0.00248288       0.00155462 </v>
   <v>       0.00638683      -0.00343884       0.00140264 </v>
   <v>      -0.00168443      -0.00131992      -0.00145804 </v>
   <v>      -0.00399304       0.00091093      -0.00332568 </v>
   <v>      -0.00028505      -0.00310630       0.00014308 </v>
   <v>      -0.00091141      -0.00043357       0.00023035 </v>
   <v>      -0.00169403       0.00107314      -0.00021331 </v>
   <v>       0.00029748       0.00129848      -0.00081387 </v>
   <v>      -0.00016448       0.00215650      -0.00126515 </v>
   <v>       0.00178876      -0.00006976       0.00065450 </v>
   <v>       0.00004806      -0.00004190       0.00181054 </v>
   <v>       0.00065182       0.00006274      -0.00000176 </v>
   <v>      -0.00075126       0.00219245       0.00089910 </v>
   <v>       0.00057018       0.00201686       0.00105141 </v>
   <v>       0.00063326      -0.00070489      -0.00005127 </v>
   <v>       0.00067081      -0.00086907       0.00052481 </v>
   <v>       0.00051884      -0.00075108       0.00099390 </v>
   <v>       0.00058461       0.00013688       0.00058474 </v>
   <v>       0.00181710       0.00062877       0.00032067 </v>
   <v>      -0.00237606       0.00011896      -0.00073355 </v>
   <v>      -0.00015459      -0.00030899      -0.00151960 </v>
   <v>       0.00039122       0.00022663      -0.00000453 </v>
   <v>       0.00043294      -0.00123426      -0.00139686 </v>
   <v>      -0.00010211      -0.00188944      -0.00075944 </v>
   <v>      -0.00101128       0.00040928       0.00006383 </v>
   <v>      -0.00010838      -0.00157727      -0.00024761 </v>
   <v>      -0.00024415       0.00164150      -0.00082769 </v>
   <v>      -0.00193544      -0.00099209      -0.00117322 </v>
   <v>      -0.00136256       0.00091613       0.00036885 </v>
   <v>       0.00263408      -0.00123058       0.00021440 </v>
   <v>      -0.00195512       0.00170866      -0.00042811 </v>
   <v>       0.00146227      -0.00094728      -0.00075965 </v>
   <v>      -0.00336027      -0.00094761      -0.00056652 </v>
   <v>      -0.00001559       0.00196074       0.00044024 </v>
   <v>       0.00061662      -0.00166090      -0.00005393 </v>
   <v>       0.00167388       0.00064751      -0.00005409 </v>
   <v>       0.00090525      -0.00049601       0.00024856 </v>
   <v>      -0.00219303       0.00047415      -0.00015477 </v>
   <v>       0.00350506       0.00127196       0.00167220 </v>
   <v>      -0.00167673       0.00170849       0.00019909 </v>
   <v>       0.00460074      -0.00014507       0.00001103 </v>
   <v>       0.00120509      -0.00023803      -0.00377828 </v>
   <v>       0.00032894      -0.00091743      -0.00077797 </v>
   <v>      -0.00275283       0.00009559       0.00245517 </v>
   <v>       0.00028857       0.00110549      -0.00065590 </v>
   <v>      -0.00135349      -0.00035281      -0.00142180 </v>
   <v>       0.00147977      -0.00080131      -0.00619285 </v>
   <v>      -0.00055701       0.00034151      -0.00187494 </v>
   <v>       0.00350033      -0.00028045       0.00279032 </v>
   <v>      -0.00100885      -0.00091297      -0.00088267 </v>
   <v>      -0.00149022       0.00111659       0.00067262 </v>
   <v>       0.00084309      -0.00263670      -0.00005083 </v>
   <v>      -0.00262512      -0.00199423       0.00074491 </v>
   <v>      -0.00059775      -0.00120551      -0.00046622 </v>
   <v>       0.00038770       0.00109873       0.00085990 </v>
   <v>       0.00116140      -0.00086015       0.00117027 </v>
   <v>      -0.00254135       0.00050705       0.00299835 </v>
   <v>      -0.00253696       0.00135255       0.00113486 </v>
   <v>      -0.00074720      -0.00076603       0.00107390 </v>
   <v>      -0.00003903       0.00356380      -0.00043750 </v>
   <v>       0.00495197       0.00285103       0.00158054 </v>
   <v>      -0.00041542       0.00010240       0.00111644 </v>
   <v>      -0.00008249      -0.00014286       0.00019453 </v>
   <v>      -0.00053084       0.00051487      -0.00006288 </v>
   <v>      -0.00157106      -0.00080883      -0.00039143 </v>
   <v>       0.00028308      -0.00018005      -0.00058036 </v>
   <v>       0.00039769      -0.00020102       0.00039040 </v>
   <v>       0.00112251       0.00109240       0.00202104 </v>
   <v>       0.00118519       0.00120994       0.00094302 </v>
   <v>       0.00004586       0.00016264       0.00016221 </v>
   <v>       0.00100398       0.00085048       0.00090216 </v>
   <v>       0.00043759      -0.00017177      -0.00077550 </v>
   <v>       0.00033240      -0.00068344      -0.00058160 </v>
   <v>      -0.00014825      -0.00086953      -0.00039732 </v>
   <v>      -0.00059489       0.00011648      -0.00053506 </v>
   <v>       0.00004473      -0.00033071      -0.00074023 </v>
   <v>       0.00002871      -0.00021233      -0.00061230 </v>
   <v>      -0.00172295       0.00072978      -0.00156356 </v>
   <v>      -0.00160153       0.00076280      -0.00052012 </v>
   <v>       0.00087018       0.00395293      -0.00069943 </v>
   <v>      -0.00066417      -0.00106128       0.00071323 </v>
   <v>      -0.00140759      -0.00024069       0.00177245 </v>
   <v>       0.00024954       0.00088721      -0.00028732 </v>
   <v>      -0.00079585      -0.00130818       0.00062189 </v>
   <v>       0.00030627      -0.00318655      -0.00823943 </v>
   <v>       0.00202018       0.00068903      -0.00053400 </v>
   <v>       0.00016290       0.00001836      -0.00078280 </v>
   <v>      -0.00054170       0.00081744       0.00073885 </v>
   <v>      -0.00154188      -0.00013692       0.00194229 </v>
   <v>       0.00021832      -0.00013487       0.00056586 </v>
   <v>       0.00008865      -0.00011551       0.00088582 </v>
   <v>      -0.00131146      -0.00098932      -0.00034628 </v>
   <v>      -0.00058424      -0.00052327       0.00052997 </v>
   <v>      -0.00071123       0.00056250      -0.00021254 </v>
   <v>      -0.00114171       0.00012943      -0.00044992 </v>
   <v>      -0.00178026      -0.00219687       0.00063142 </v>
   <v>      -0.00015334      -0.00103919      -0.00015194 </v>
   <v>       0.00007621      -0.00039457       0.00118104 </v>
   <v>       0.00052994       0.00034572       0.00040869 </v>
   <v>      -0.00078695       0.00011914       0.00250082 </v>
   <v>      -0.00099099       0.00030231      -0.00100623 </v>
   <v>      -0.00155277       0.00414887       0.00084999 </v>
   <v>      -0.00009963      -0.00181181       0.00129837 </v>
   <v>       0.00062749      -0.00193906       0.00149522 </v>
   <v>       0.00160420       0.00133529       0.00078653 </v>
  </varray>
  <varray name="stress" >
   <v>      -0.01369113       0.00115695       0.00697932 </v>
   <v>       0.00115696      -0.00847700       0.01831271 </v>
   <v>       0.00697932       0.01831271      -0.20011253 </v>
  </varray>
  <energy>
   <i name="e_fr_energy">   -783.32117290 </i>
   <i name="e_wo_entrp">   -783.32117290 </i>
   <i name="e_0_energy">     -0.00000000 </i>
  </energy>
  <time name="totalsc"> 1813.18 1831.79</time>
  <eigenvalues>
   <array>
    <dimension dim="1">band</dimension>
    <dimension dim="2">kpoint</dimension>
    <dimension dim="3">spin</dimension>
    <field>eigene</field>
    <field>occ</field>
    <set>
     <set comment="spin 1">
      <set comment="kpoint 1">
       <r>  -24.3705    1.0000 </r>
       <r>  -24.3650    1.0000 </r>
       <r>  -24.2798    1.0000 </r>
       <r>  -24.2445    1.0000 </r>
       <r>  -23.2216    1.0000 </r>
       <r>  -23.2151    1.0000 </r>
       <r>  -23.0232    1.0000 </r>
       <r>  -22.9558    1.0000 </r>
       <r>  -22.7086    1.0000 </r>
       <r>  -22.7028    1.0000 </r>
       <r>  -22.1129    1.0000 </r>
       <r>  -22.1045    1.0000 </r>
       <r>  -21.2551    1.0000 </r>
       <r>  -21.2457    1.0000 </r>
       <r>  -21.2073    1.0000 </r>
       <r>  -21.0800    1.0000 </r>
       <r>  -20.9274    1.0000 </r>
       <r>  -20.9193    1.0000 </r>
       <r>  -20.1298    1.0000 </r>
       <r>  -19.8049    1.0000 </r>
       <r>  -19.7240    1.0000 </r>
       <r>  -19.4726    1.0000 </r>
       <r>  -19.1448    1.0000 </r>
       <r>  -19.0272    1.0000 </r>
       <r>  -18.6606    1.0000 </r>
       <r>  -18.5167    1.0000 </r>
       <r>  -18.4542    1.0000 </r>
       <r>  -18.2236    1.0000 </r>
       <r>  -18.2137    1.0000 </r>
       <r>  -18.1611    1.0000 </r>
       <r>  -18.1304    1.0000 </r>
       <r>  -18.1213    1.0000 </r>
       <r>  -18.0929    1.0000 </r>
       <r>  -17.8191    1.0000 </r>
       <r>  -17.5218    1.0000 </r>
       <r>  -17.4512    1.0000 </r>
       <r>  -17.3943    1.0000 </r>
       <r>  -16.7573    1.0000 </r>
       <r>  -16.4003    1.0000 </r>
       <r>  -16.3410    1.0000 </r>
       <r>  -16.1911    1.0000 </r>
       <r>  -15.6207    1.0000 </r>
       <r>  -15.6148    1.0000 </r>
       <r>  -15.5909    1.0000 </r>
       <r>  -15.5410    1.0000 </r>
       <r>  -14.9801    1.0000 </r>
       <r>  -14.7980    1.0000 </r>
       <r>  -14.7555    1.0000 </r>
       <r>  -14.6895    1.0000 </r>
       <r>  -14.6829    1.0000 </r>
       <r>  -14.6625    1.0000 </r>
       <r>  -14.3622    1.0000 </r>
       <r>  -14.2949    1.0000 </r>
       <r>  -14.2924    1.0000 </r>
       <r>  -14.2172    1.0000 </r>
       <r>  -14.1722    1.0000 </r>
       <r>  -14.1511    1.0000 </r>
       <r>  -13.9033    1.0000 </r>
       <r>  -13.7566    1.0000 </r>
       <r>  -13.6449    1.0000 </r>
       <r>  -13.3602    1.0000 </r>
       <r>  -13.2237    1.0000 </r>
       <r>  -13.2171    1.0000 </r>
       <r>  -13.0836    1.0000 </r>
       <r>  -13.0528    1.0000 </r>
       <r>  -13.0388    1.0000 </r>
       <r>  -12.9438    1.0000 </r>
       <r>  -12.4453    1.0000 </r>
       <r>  -12.4003    1.0000 </r>
       <r>  -12.3735    1.0000 </r>
       <r>  -12.2253    1.0000 </r>
       <r>  -12.1078    1.0000 </r>
       <r>  -11.9173    1.0000 </r>
       <r>  -11.9005    1.0000 </r>
       <r>  -11.6861    1.0000 </r>
       <r>  -11.5694    1.0000 </r>
       <r>  -11.5255    1.0000 </r>
       <r>  -11.4234    1.0000 </r>
       <r>  -11.3710    1.0000 </r>
       <r>  -11.2945    1.0000 </r>
       <r>  -11.2664    1.0000 </r>
       <r>  -11.2577    1.0000 </r>
       <r>  -11.2338    1.0000 </r>
       <r>  -11.0851    1.0000 </r>
       <r>  -10.9176    1.0000 </r>
       <r>  -10.8858    1.0000 </r>
       <r>  -10.6925    1.0000 </r>
       <r>  -10.6394    1.0000 </r>
       <r>  -10.6106    1.0000 </r>
       <r>  -10.5837    1.0000 </r>
       <r>  -10.5730    1.0000 </r>
       <r>  -10.4440    1.0000 </r>
       <r>  -10.4036    1.0000 </r>
       <r>  -10.3577    1.0000 </r>
       <r>  -10.3239    1.0000 </r>
       <r>  -10.2877    1.0000 </r>
       <r>  -10.2027    1.0000 </r>
       <r>  -10.1502    1.0000 </r>
       <r>  -10.1258    1.0000 </r>
       <r>  -10.0708    1.0000 </r>
       <r>   -9.9168    1.0000 </r>
       <r>   -9.8694    1.0000 </r>
       <r>   -9.8541    1.0000 </r>
       <r>   -9.8404    1.0000 </r>
       <r>   -9.8275    1.0000 </r>
       <r>   -9.7807    1.0000 </r>
       <r>   -9.7723    1.0000 </r>
       <r>   -9.7539    1.0000 </r>
       <r>   -9.7429    1.0000 </r>
       <r>   -9.5449    1.0000 </r>
       <r>   -9.4738    1.0000 </r>
       <r>   -9.4260    1.0000 </r>
       <r>   -9.3856    1.0000 </r>
       <r>   -9.2864    1.0000 </r>
       <r>   -9.2807    1.0000 </r>
       <r>   -9.2606    1.0000 </r>
       <r>   -9.1302    1.0000 </r>
       <r>   -9.0871    1.0000 </r>
       <r>   -8.9376    1.0000 </r>
       <r>   -8.8923    1.0000 </r>
       <r>   -8.8197    1.0000 </r>
       <r>   -8.7605    1.0000 </r>
       <r>   -8.6752    1.0000 </r>
       <r>   -8.6351    1.0000 </r>
       <r>   -8.5233    1.0000 </r>
       <r>   -8.4718    1.0000 </r>
       <r>   -8.2358    1.0000 </r>
       <r>   -8.1438    1.0000 </r>
       <r>   -8.1099    1.0000 </r>
       <r>   -8.0595    1.0000 </r>
       <r>   -8.0031    1.0000 </r>
       <r>   -7.9879    1.0000 </r>
       <r>   -7.9564    1.0000 </r>
       <r>   -7.8757    1.0000 </r>
       <r>   -7.8607    1.0000 </r>
       <r>   -7.8463    1.0000 </r>
       <r>   -7.7981    1.0000 </r>
       <r>   -7.7574    1.0000 </r>
       <r>   -7.5873    1.0000 </r>
       <r>   -7.5731    1.0000 </r>
       <r>   -7.3950    1.0000 </r>
       <r>   -6.7170    1.0000 </r>
       <r>   -6.5904    1.0000 </r>
       <r>   -6.3878    1.0000 </r>
       <r>   -6.3783    1.0000 </r>
       <r>   -6.1907    1.0000 </r>
       <r>   -6.1692    1.0000 </r>
       <r>   -6.1303    1.0000 </r>
       <r>   -6.1042    1.0000 </r>
       <r>   -6.0601    1.0000 </r>
       <r>   -6.0214    1.0000 </r>
       <r>   -6.0039    1.0000 </r>
       <r>   -5.9381    1.0000 </r>
       <r>   -5.9089    1.0000 </r>
       <r>   -5.8812    1.0000 </r>
       <r>   -5.8491    1.0000 </r>
       <r>   -5.8343    1.0000 </r>
       <r>   -5.8129    1.0000 </r>
       <r>   -5.7941    1.0000 </r>
       <r>   -5.5420    1.0000 </r>
       <r>   -5.5262    1.0000 </r>
       <r>   -5.4333    1.0000 </r>
       <r>   -5.3504    1.0000 </r>
       <r>   -5.2110    1.0000 </r>
       <r>   -5.2002    1.0000 </r>
       <r>   -4.7703    1.0000 </r>
       <r>   -4.3855    1.0000 </r>
       <r>   -3.8481    1.0000 </r>
       <r>   -3.8458    1.0000 </r>
       <r>   -2.6509    0.0000 </r>
       <r>   -2.6494    0.0000 </r>
       <r>   -1.4288    0.0000 </r>
       <r>   -1.1706    0.0000 </r>
       <r>   -1.1633    0.0000 </r>
       <r>   -1.0717    0.0000 </r>
       <r>   -1.0480    0.0000 </r>
       <r>   -1.0224    0.0000 </r>
       <r>   -1.0019    0.0000 </r>
       <r>   -0.9688    0.0000 </r>
       <r>   -0.9629    0.0000 </r>
       <r>   -0.9165    0.0000 </r>
       <r>   -0.8921    0.0000 </r>
       <r>   -0.3528    0.0000 </r>
       <r>   -0.2957    0.0000 </r>
       <r>   -0.1376    0.0000 </r>
       <r>   -0.1028    0.0000 </r>
       <r>   -0.0019    0.0000 </r>
       <r>    0.0005    0.0000 </r>
       <r>    0.0350    0.0000 </r>
       <r>    0.0912    0.0000 </r>
       <r>    0.1660    0.0000 </r>
       <r>    0.2392    0.0000 </r>
       <r>    0.2629    0.0000 </r>
       <r>    0.3253    0.0000 </r>
       <r>    0.3461    0.0000 </r>
       <r>    0.3684    0.0000 </r>
       <r>    0.3881    0.0000 </r>
       <r>    0.4617    0.0000 </r>
       <r>    0.5042    0.0000 </r>
       <r>    0.5435    0.0000 </r>
       <r>    0.5762    0.0000 </r>
       <r>    0.5931    0.0000 </r>
       <r>    0.6481    0.0000 </r>
       <r>    0.6546    0.0000 </r>
       <r>    0.7090    0.0000 </r>
       <r>    0.7135    0.0000 </r>
       <r>    0.7647    0.0000 </r>
       <r>    0.7677    0.0000 </r>
       <r>    0.7919    0.0000 </r>
       <r>    0.8120    0.0000 </r>
       <r>    0.8385    0.0000 </r>
       <r>    0.8463    0.0000 </r>
       <r>    0.8656    0.0000 </r>
       <r>    0.8923    0.0000 </r>
       <r>    0.9422    0.0000 </r>
       <r>    0.9470    0.0000 </r>
       <r>    0.9850    0.0000 </r>
       <r>    0.9953    0.0000 </r>
       <r>    0.9999    0.0000 </r>
       <r>    1.0466    0.0000 </r>
       <r>    1.0533    0.0000 </r>
       <r>    1.0670    0.0000 </r>
       <r>    1.0945    0.0000 </r>
       <r>    1.1056    0.0000 </r>
       <r>    1.1245    0.0000 </r>
       <r>    1.1369    0.0000 </r>
       <r>    1.1568    0.0000 </r>
       <r>    1.1931    0.0000 </r>
       <r>    1.2194    0.0000 </r>
       <r>    1.2461    0.0000 </r>
       <r>    1.2549    0.0000 </r>
       <r>    1.2904    0.0000 </r>
       <r>    1.3354    0.0000 </r>
       <r>    1.3815    0.0000 </r>
       <r>    1.3987    0.0000 </r>
       <r>    1.4442    0.0000 </r>
       <r>    1.4535    0.0000 </r>
       <r>    1.4558    0.0000 </r>
       <r>    1.4769    0.0000 </r>
       <r>    1.5087    0.0000 </r>
      </set>
      <set comment="kpoint 2">
       <r>  -24.3705    1.0000 </r>
       <r>  -24.3650    1.0000 </r>
       <r>  -24.2798    1.0000 </r>
       <r>  -24.2445    1.0000 </r>
       <r>  -23.2216    1.0000 </r>
       <r>  -23.2151    1.0000 </r>
       <r>  -23.0232    1.0000 </r>
       <r>  -22.9558    1.0000 </r>
       <r>  -22.7086    1.0000 </r>
       <r>  -22.7028    1.0000 </r>
       <r>  -22.1129    1.0000 </r>
       <r>  -22.1045    1.0000 </r>
       <r>  -21.2554    1.0000 </r>
       <r>  -21.2458    1.0000 </r>
       <r>  -21.2068    1.0000 </r>
       <r>  -21.0802    1.0000 </r>
       <r>  -20.9274    1.0000 </r>
       <r>  -20.9193    1.0000 </r>
       <r>  -20.1298    1.0000 </r>
       <r>  -19.8049    1.0000 </r>
       <r>  -19.7240    1.0000 </r>
       <r>  -19.4727    1.0000 </r>
       <r>  -19.1448    1.0000 </r>
       <r>  -19.0273    1.0000 </r>
       <r>  -18.6605    1.0000 </r>
       <r>  -18.5177    1.0000 </r>
       <r>  -18.4530    1.0000 </r>
       <r>  -18.2236    1.0000 </r>
       <r>  -18.2136    1.0000 </r>
       <r>  -18.1611    1.0000 </r>
       <r>  -18.1304    1.0000 </r>
       <r>  -18.1213    1.0000 </r>
       <r>  -18.0929    1.0000 </r>
       <r>  -17.8205    1.0000 </r>
       <r>  -17.5211    1.0000 </r>
       <r>  -17.4510    1.0000 </r>
       <r>  -17.3939    1.0000 </r>
       <r>  -16.7575    1.0000 </r>
       <r>  -16.4047    1.0000 </r>
       <r>  -16.3372    1.0000 </r>
       <r>  -16.1901    1.0000 </r>
       <r>  -15.6235    1.0000 </r>
       <r>  -15.6147    1.0000 </r>
       <r>  -15.5890    1.0000 </r>
       <r>  -15.5409    1.0000 </r>
       <r>  -14.9797    1.0000 </r>
       <r>  -14.7982    1.0000 </r>
       <r>  -14.7555    1.0000 </r>
       <r>  -14.6895    1.0000 </r>
       <r>  -14.6828    1.0000 </r>
       <r>  -14.6625    1.0000 </r>
       <r>  -14.3623    1.0000 </r>
       <r>  -14.3006    1.0000 </r>
       <r>  -14.2874    1.0000 </r>
       <r>  -14.2174    1.0000 </r>
       <r>  -14.1715    1.0000 </r>
       <r>  -14.1508    1.0000 </r>
       <r>  -13.9036    1.0000 </r>
       <r>  -13.7566    1.0000 </r>
       <r>  -13.6448    1.0000 </r>
       <r>  -13.3603    1.0000 </r>
       <r>  -13.2237    1.0000 </r>
       <r>  -13.2171    1.0000 </r>
       <r>  -13.0836    1.0000 </r>
       <r>  -13.0528    1.0000 </r>
       <r>  -13.0388    1.0000 </r>
       <r>  -12.9438    1.0000 </r>
       <r>  -12.4455    1.0000 </r>
       <r>  -12.4001    1.0000 </r>
       <r>  -12.3734    1.0000 </r>
       <r>  -12.2252    1.0000 </r>
       <r>  -12.1079    1.0000 </r>
       <r>  -11.9173    1.0000 </r>
       <r>  -11.9005    1.0000 </r>
       <r>  -11.6859    1.0000 </r>
       <r>  -11.5697    1.0000 </r>
       <r>  -11.5254    1.0000 </r>
       <r>  -11.4233    1.0000 </r>
       <r>  -11.3710    1.0000 </r>
       <r>  -11.2944    1.0000 </r>
       <r>  -11.2665    1.0000 </r>
       <r>  -11.2577    1.0000 </r>
       <r>  -11.2337    1.0000 </r>
       <r>  -11.0853    1.0000 </r>
       <r>  -10.9191    1.0000 </r>
       <r>  -10.8841    1.0000 </r>
       <r>  -10.6925    1.0000 </r>
       <r>  -10.6394    1.0000 </r>
       <r>  -10.6106    1.0000 </r>
       <r>  -10.5837    1.0000 </r>
       <r>  -10.5730    1.0000 </r>
       <r>  -10.4440    1.0000 </r>
       <r>  -10.4035    1.0000 </r>
       <r>  -10.3577    1.0000 </r>
       <r>  -10.3240    1.0000 </r>
       <r>  -10.2877    1.0000 </r>
       <r>  -10.2026    1.0000 </r>
       <r>  -10.1503    1.0000 </r>
       <r>  -10.1257    1.0000 </r>
       <r>  -10.0708    1.0000 </r>
       <r>   -9.9168    1.0000 </r>
       <r>   -9.8694    1.0000 </r>
       <r>   -9.8541    1.0000 </r>
       <r>   -9.8404    1.0000 </r>
       <r>   -9.8275    1.0000 </r>
       <r>   -9.7821    1.0000 </r>
       <r>   -9.7723    1.0000 </r>
       <r>   -9.7528    1.0000 </r>
       <r>   -9.7423    1.0000 </r>
       <r>   -9.5448    1.0000 </r>
       <r>   -9.4739    1.0000 </r>
       <r>   -9.4265    1.0000 </r>
       <r>   -9.3856    1.0000 </r>
       <r>   -9.2896    1.0000 </r>
       <r>   -9.2776    1.0000 </r>
       <r>   -9.2603    1.0000 </r>
       <r>   -9.1301    1.0000 </r>
       <r>   -9.0871    1.0000 </r>
       <r>   -8.9376    1.0000 </r>
       <r>   -8.8922    1.0000 </r>
       <r>   -8.8197    1.0000 </r>
       <r>   -8.7606    1.0000 </r>
       <r>   -8.6753    1.0000 </r>
       <r>   -8.6352    1.0000 </r>
       <r>   -8.5233    1.0000 </r>
       <r>   -8.4718    1.0000 </r>
       <r>   -8.2358    1.0000 </r>
       <r>   -8.1440    1.0000 </r>
       <r>   -8.1099    1.0000 </r>
       <r>   -8.0596    1.0000 </r>
       <r>   -8.0031    1.0000 </r>
       <r>   -7.9877    1.0000 </r>
       <r>   -7.9564    1.0000 </r>
       <r>   -7.8758    1.0000 </r>
       <r>   -7.8607    1.0000 </r>
       <r>   -7.8461    1.0000 </r>
       <r>   -7.7981    1.0000 </r>
       <r>   -7.7574    1.0000 </r>
       <r>   -7.5873    1.0000 </r>
       <r>   -7.5731    1.0000 </r>
       <r>   -7.3950    1.0000 </r>
       <r>   -6.7170    1.0000 </r>
       <r>   -6.5904    1.0000 </r>
       <r>   -6.3878    1.0000 </r>
       <r>   -6.3783    1.0000 </r>
       <r>   -6.1907    1.0000 </r>
       <r>   -6.1693    1.0000 </r>
       <r>   -6.1302    1.0000 </r>
       <r>   -6.1042    1.0000 </r>
       <r>   -6.0600    1.0000 </r>
       <r>   -6.0215    1.0000 </r>
       <r>   -6.0040    1.0000 </r>
       <r>   -5.9381    1.0000 </r>
       <r>   -5.9090    1.0000 </r>
       <r>   -5.8815    1.0000 </r>
       <r>   -5.8486    1.0000 </r>
       <r>   -5.8342    1.0000 </r>
       <r>   -5.8129    1.0000 </r>
       <r>   -5.7941    1.0000 </r>
       <r>   -5.5419    1.0000 </r>
       <r>   -5.5262    1.0000 </r>
       <r>   -5.4334    1.0000 </r>
       <r>   -5.3504    1.0000 </r>
       <r>   -5.2111    1.0000 </r>
       <r>   -5.2003    1.0000 </r>
       <r>   -4.7703    1.0000 </r>
       <r>   -4.3855    1.0000 </r>
       <r>   -3.8481    1.0000 </r>
       <r>   -3.8458    1.0000 </r>
       <r>   -2.6509    0.0000 </r>
       <r>   -2.6494    0.0000 </r>
       <r>   -1.4288    0.0000 </r>
       <r>   -1.1706    0.0000 </r>
       <r>   -1.1633    0.0000 </r>
       <r>   -1.0718    0.0000 </r>
       <r>   -1.0479    0.0000 </r>
       <r>   -1.0224    0.0000 </r>
       <r>   -1.0018    0.0000 </r>
       <r>   -0.9688    0.0000 </r>
       <r>   -0.9628    0.0000 </r>
       <r>   -0.9165    0.0000 </r>
       <r>   -0.8921    0.0000 </r>
       <r>   -0.3527    0.0000 </r>
       <r>   -0.2958    0.0000 </r>
       <r>   -0.1378    0.0000 </r>
       <r>   -0.1026    0.0000 </r>
       <r>   -0.0020    0.0000 </r>
       <r>    0.0005    0.0000 </r>
       <r>    0.0351    0.0000 </r>
       <r>    0.0913    0.0000 </r>
       <r>    0.1661    0.0000 </r>
       <r>    0.2380    0.0000 </r>
[...]
       <r>   -20.5398     0.0000    36.0000 </r>
       <r>   -20.4449     0.0000    36.0000 </r>
       <r>   -20.3500     0.0000    36.0000 </r>
       <r>   -20.2551     0.0000    36.0000 </r>
       <r>   -20.1602     0.0003    36.0000 </r>
       <r>   -20.0653    21.0736    38.0000 </r>
       <r>   -19.9704     0.0000    38.0000 </r>
       <r>   -19.8755     0.0000    38.0000 </r>
       <r>   -19.7806    20.8037    39.9744 </r>
       <r>   -19.6857    21.0660    41.9993 </r>
       <r>   -19.5908     0.0000    42.0000 </r>
       <r>   -19.4959     4.9031    42.4653 </r>
       <r>   -19.4010     6.6497    44.0000 </r>
       <r>   -19.3061     0.0000    44.0000 </r>
       <r>   -19.2112     0.0000    44.0000 </r>
       <r>   -19.1163    21.0733    45.9999 </r>
       <r>   -19.0214    20.1674    47.9140 </r>
       <r>   -18.9265     0.0000    48.0000 </r>
       <r>   -18.8316     0.0000    48.0000 </r>
       <r>   -18.7367     0.0000    48.0000 </r>
       <r>   -18.6418    16.1703    49.5346 </r>
       <r>   -18.5468    10.5518    50.8354 </r>
       <r>   -18.4519     8.5293    52.1437 </r>
       <r>   -18.3570     8.2280    53.1480 </r>
       <r>   -18.2621     5.1930    53.8270 </r>
       <r>   -18.1672    41.3324    57.9226 </r>
       <r>   -18.0723    66.9883    66.3576 </r>
       <r>   -17.9774     6.9494    67.1599 </r>
       <r>   -17.8825     3.4664    67.5293 </r>
       <r>   -17.7876     4.2142    68.0000 </r>
       <r>   -17.6927     0.0000    68.0000 </r>
       <r>   -17.5978     0.5913    68.0561 </r>
       <r>   -17.5029    12.0514    69.5114 </r>
       <r>   -17.4080    10.1307    70.9614 </r>
       <r>   -17.3131    17.0437    72.7860 </r>
       <r>   -17.2182     6.3293    73.5011 </r>
       <r>   -17.1233     4.5646    74.0000 </r>
       <r>   -17.0284     0.0000    74.0000 </r>
       <r>   -16.9335     0.0000    74.0000 </r>
       <r>   -16.8386     4.7113    74.4471 </r>
       <r>   -16.7437    14.6978    75.9953 </r>
       <r>   -16.6488     6.3473    76.6029 </r>
       <r>   -16.5539     6.1137    77.2472 </r>
       <r>   -16.4590     3.6451    77.6466 </r>
       <r>   -16.3641     3.1563    78.0001 </r>
       <r>   -16.2691     7.9644    78.7559 </r>
       <r>   -16.1742     6.7919    79.7118 </r>
       <r>   -16.0793     7.6286    80.6241 </r>
       <r>   -15.9844     2.9883    80.9503 </r>
       <r>   -15.8895    10.1688    81.9657 </r>
       <r>   -15.7946    13.3488    83.2669 </r>
       <r>   -15.6997     7.3612    84.0989 </r>
       <r>   -15.6048    17.9183    85.9343 </r>
       <r>   -15.5099    38.7363    89.7436 </r>
       <r>   -15.4150     0.0000    90.0000 </r>
       <r>   -15.3201     0.0000    90.0000 </r>
       <r>   -15.2252     0.0000    90.0000 </r>
       <r>   -15.1303     0.0000    90.0000 </r>
       <r>   -15.0354     0.0000    90.0000 </r>
       <r>   -14.9405     6.7851    90.6439 </r>
       <r>   -14.8456    12.4711    91.9510 </r>
       <r>   -14.7507    27.4292    95.5376 </r>
       <r>   -14.6558    49.8492   100.7309 </r>
       <r>   -14.5609     0.0014   102.0001 </r>
       <r>   -14.4660     7.0102   102.6654 </r>
       <r>   -14.3711    12.6288   103.9653 </r>
       <r>   -14.2762     9.8165   106.2014 </r>
       <r>   -14.1813    31.2568   109.4019 </r>
       <r>   -14.0864    32.3263   112.9044 </r>
       <r>   -13.9915    10.7528   114.0877 </r>
       <r>   -13.8965    15.3645   115.9592 </r>
       <r>   -13.8016     0.0000   116.0000 </r>
       <r>   -13.7067    21.0739   118.0000 </r>
       <r>   -13.6118    17.6383   119.6739 </r>
       <r>   -13.5169     0.0000   120.0000 </r>
       <r>   -13.4220     0.0000   120.0000 </r>
       <r>   -13.3271    21.0739   122.0000 </r>
       <r>   -13.2322     1.9796   122.1879 </r>
       <r>   -13.1373    20.7838   126.0000 </r>
       <r>   -13.0424    46.0689   130.3721 </r>
       <r>   -12.9475     4.1027   132.3894 </r>
       <r>   -12.8526     0.0000   134.0000 </r>
       <r>   -12.7577     0.0000   134.0000 </r>
       <r>   -12.6628     0.0000   134.0000 </r>
       <r>   -12.5679     0.0000   134.0000 </r>
       <r>   -12.4730     4.1731   134.3960 </r>
       <r>   -12.3781    30.3091   138.1784 </r>
       <r>   -12.2832     9.4695   140.0000 </r>
       <r>   -12.1883    20.9892   141.9920 </r>
       <r>   -12.0934    20.9952   143.9925 </r>
       <r>   -11.9985     0.0000   144.0000 </r>
       <r>   -11.9036    30.8256   146.9255 </r>
       <r>   -11.8087     0.0000   148.0000 </r>
       <r>   -11.7138     0.0001   148.0000 </r>
       <r>   -11.6189    21.5195   150.0423 </r>
       <r>   -11.5239    22.1589   152.5040 </r>
       <r>   -11.4290     8.3154   154.1567 </r>
       <r>   -11.3341    21.0745   158.0001 </r>
       <r>   -11.2392    59.1544   163.6140 </r>
       <r>   -11.1443    17.2626   166.4404 </r>
       <r>   -11.0494    10.8934   168.0015 </r>
       <r>   -10.9545    16.2233   169.5741 </r>
       <r>   -10.8596     6.2622   170.2950 </r>
       <r>   -10.7647    10.9778   171.4422 </r>
       <r>   -10.6698    25.1382   173.9868 </r>
       <r>   -10.5749    73.5346   180.9798 </r>
       <r>   -10.4800     0.0000   182.0000 </r>
       <r>   -10.3851    40.4856   185.8422 </r>
       <r>   -10.2902    43.2070   190.8016 </r>
       <r>   -10.1953    12.9458   193.2286 </r>
       <r>   -10.1004    41.0185   197.8929 </r>
       <r>   -10.0055    21.0714   200.0000 </r>
       <r>    -9.9106     8.3982   200.7970 </r>
       <r>    -9.8157    98.7852   211.2770 </r>
       <r>    -9.7208    35.6474   215.5189 </r>
       <r>    -9.6259    13.8014   217.0780 </r>
       <r>    -9.5310    34.4631   220.5071 </r>
       <r>    -9.4361    33.5263   223.9190 </r>
       <r>    -9.3412    18.1344   226.2551 </r>
       <r>    -9.2462    30.6126   230.1753 </r>
       <r>    -9.1513    15.9022   231.9431 </r>
       <r>    -9.0564    42.1437   236.0000 </r>
       <r>    -8.9615     0.0272   236.0026 </r>
       <r>    -8.8666    41.9054   239.9796 </r>
       <r>    -8.7717    26.9202   242.5548 </r>
       <r>    -8.6768    12.1374   245.1519 </r>
       <r>    -8.5819    21.0739   248.0000 </r>
       <r>    -8.4870    21.2109   250.0130 </r>
       <r>    -8.3921    20.9369   252.0000 </r>
       <r>    -8.2972     0.0000   252.0000 </r>
       <r>    -8.2023    21.0877   254.0013 </r>
       <r>    -8.1074    30.0578   256.8539 </r>
       <r>    -8.0125    22.1754   260.1045 </r>
       <r>    -7.9176    51.9678   266.0000 </r>
       <r>    -7.8227    55.3027   271.2485 </r>
       <r>    -7.7278    38.9000   276.0000 </r>
       <r>    -7.6329     0.0000   276.0000 </r>
       <r>    -7.5380    42.1478   280.0000 </r>
       <r>    -7.4431     0.0000   280.0000 </r>
       <r>    -7.3482    21.0739   282.0000 </r>
       <r>    -7.2533     0.0000   282.0000 </r>
       <r>    -7.1584     0.0000   282.0000 </r>
       <r>    -7.0635     0.0000   282.0000 </r>
       <r>    -6.9686     0.0000   282.0000 </r>
       <r>    -6.8736     0.0000   282.0000 </r>
       <r>    -6.7787     0.0000   282.0000 </r>
       <r>    -6.6838    21.0739   284.0000 </r>
       <r>    -6.5889    11.3352   285.0758 </r>
       <r>    -6.4940     0.0000   286.0000 </r>
       <r>    -6.3991     0.6139   286.0583 </r>
       <r>    -6.3042    27.3010   290.0000 </r>
       <r>    -6.2093     0.0368   290.0035 </r>
       <r>    -6.1144    61.2615   295.8175 </r>
       <r>    -6.0195    47.2178   302.4812 </r>
       <r>    -5.9246    26.9646   306.3948 </r>
       <r>    -5.8297    38.9926   311.5035 </r>
       <r>    -5.7348    45.2119   318.0000 </r>
       <r>    -5.6399     0.0000   318.0000 </r>
       <r>    -5.5450     2.3710   318.2250 </r>
       <r>    -5.4501    29.2046   322.2446 </r>
       <r>    -5.3552     8.9023   324.4165 </r>
       <r>    -5.2603     0.0000   326.0000 </r>
       <r>    -5.1654    42.1478   330.0000 </r>
       <r>    -5.0705     0.0000   330.0000 </r>
       <r>    -4.9756     0.0000   330.0000 </r>
       <r>    -4.8807     0.0000   330.0000 </r>
       <r>    -4.7858     0.3041   330.0289 </r>
       <r>    -4.6909    20.7698   332.0000 </r>
       <r>    -4.5959     0.0000   332.0000 </r>
       <r>    -4.5010     0.0000   332.0000 </r>
       <r>    -4.4061     0.0163   332.0016 </r>
       <r>    -4.3112    21.0576   334.0000 </r>
       <r>    -4.2163     0.0000   334.0000 </r>
       <r>    -4.1214     0.0000   334.0000 </r>
       <r>    -4.0265     0.0000   334.0000 </r>
       <r>    -3.9316     0.0000   334.0000 </r>
       <r>    -3.8367    38.3890   337.6433 </r>
       <r>    -3.7418     0.0000   338.0000 </r>
       <r>    -3.6469     0.0000   338.0000 </r>
       <r>    -3.5520     0.0000   338.0000 </r>
       <r>    -3.4571     0.0000   338.0000 </r>
       <r>    -3.3622     0.0000   338.0000 </r>
       <r>    -3.2673     0.0000   338.0000 </r>
       <r>    -3.1724     0.0000   338.0000 </r>
       <r>    -3.0775     0.0000   338.0000 </r>
       <r>    -2.9826     0.0000   338.0000 </r>
       <r>    -2.8877     0.0000   338.0000 </r>
       <r>    -2.7928     0.0000   338.0000 </r>
       <r>    -2.6979     0.0000   338.0000 </r>
       <r>    -2.6030    42.1478   342.0000 </r>
       <r>    -2.5081     0.0000   342.0000 </r>
       <r>    -2.4132     0.0000   342.0000 </r>
       <r>    -2.3183     0.0000   342.0000 </r>
       <r>    -2.2233     0.0000   342.0000 </r>
       <r>    -2.1284     0.0000   342.0000 </r>
       <r>    -2.0335     0.0000   342.0000 </r>
       <r>    -1.9386     0.0000   342.0000 </r>
       <r>    -1.8437     0.0000   342.0000 </r>
       <r>    -1.7488     0.0000   342.0000 </r>
       <r>    -1.6539     0.0000   342.0000 </r>
       <r>    -1.5590     0.0000   342.0000 </r>
       <r>    -1.4641     0.0000   342.0000 </r>
       <r>    -1.3692    21.0739   344.0000 </r>
       <r>    -1.2743     0.0000   344.0000 </r>
       <r>    -1.1794     2.6269   344.2493 </r>
       <r>    -1.0845    28.2900   348.7090 </r>
       <r>    -0.9896    59.4947   355.6463 </r>
       <r>    -0.8947    76.4455   363.2577 </r>
       <r>    -0.7998     0.0000   364.0000 </r>
       <r>    -0.7049     0.0000   364.0000 </r>
       <r>    -0.6100     0.0000   364.0000 </r>
       <r>    -0.5151     0.0000   364.0000 </r>
       <r>    -0.4202     0.0000   364.0000 </r>
       <r>    -0.3253    20.2198   365.9189 </r>
       <r>    -0.2304    18.1291   368.0000 </r>
       <r>    -0.1355    19.7276   369.8722 </r>
       <r>    -0.0406    21.0756   372.0002 </r>
       <r>     0.0543    61.8345   377.8685 </r>
       <r>     0.1493    21.0955   380.0020 </r>
       <r>     0.2442    41.0420   383.8972 </r>
       <r>     0.3391    47.5501   388.5131 </r>
       <r>     0.4340    48.6167   394.6167 </r>
       <r>     0.5289    36.2632   398.7772 </r>
       <r>     0.6238    43.8973   403.6002 </r>
       <r>     0.7187    70.6927   411.6797 </r>
       <r>     0.8136    75.7788   419.9657 </r>
       <r>     0.9085    67.4902   427.7402 </r>
       <r>     1.0034    68.5476   435.5741 </r>
       <r>     1.0983    74.0716   443.5669 </r>
       <r>     1.1932    77.7946   452.4858 </r>
       <r>     1.2881    84.8050   461.7872 </r>
       <r>     1.3830    72.7356   470.2070 </r>
       <r>     1.4779    67.8822   478.2812 </r>
       <r>     1.5728     8.0600   480.0000 </r>
       <r>     1.6677     0.0000   480.0000 </r>
       <r>     1.7626     0.0000   480.0000 </r>
       <r>     1.8575     0.0000   480.0000 </r>
       <r>     1.9524     0.0000   480.0000 </r>
       <r>     2.0473     0.0000   480.0000 </r>
       <r>     2.1422     0.0000   480.0000 </r>
       <r>     2.2371     0.0000   480.0000 </r>
       <r>     2.3320     0.0000   480.0000 </r>
       <r>     2.4270     0.0000   480.0000 </r>
       <r>     2.5219     0.0000   480.0000 </r>
       <r>     2.6168     0.0000   480.0000 </r>
       <r>     2.7117     0.0000   480.0000 </r>
       <r>     2.8066     0.0000   480.0000 </r>
      </set>
     </set>
    </array>
   </total>
  </dos>
 </calculation>
 <structure name="finalpos" >
  <crystal>
   <varray name="basis" >
    <v>      24.94380169      -0.00515014       0.00000000 </v>
    <v>      -0.02198622      24.99643610       0.00000000 </v>
    <v>       0.00000000       0.00000000      20.00000000 </v>
   </varray>
   <i name="volume">  12470.12063829 </i>
   <varray name="rec_basis" >
    <v>       0.04009013       0.00003526       0.00000000 </v>
    <v>       0.00000826       0.04000571       0.00000000 </v>
    <v>       0.00000000       0.00000000       0.05000000 </v>
   </varray>
  </crystal>
  <varray name="positions" >
   <v>       0.92907254       0.94947814       0.50267012 </v>
   <v>       0.95181080       0.06461928       0.49248164 </v>
   <v>       0.06807054       0.04652674       0.49584137 </v>
   <v>       0.04547056       0.93144809       0.50524515 </v>
   <v>       0.52478518       0.05373628       0.51432065 </v>
   <v>       0.39239694       0.99131643       0.52590904 </v>
   <v>       0.05379908       0.47198597       0.51750267 </v>
   <v>       0.99296705       0.60507420       0.52007624 </v>
   <v>       0.46920308       0.96435093       0.46751814 </v>
   <v>       0.54482865       0.93717899       0.40767869 </v>
   <v>       0.60292220       0.02473303       0.45744086 </v>
   <v>       0.96718732       0.52742067       0.46292689 </v>
   <v>       0.94133102       0.45099895       0.40402357 </v>
   <v>       0.02618558       0.39320243       0.46114464 </v>
   <v>       0.84315894       0.92243811       0.49287792 </v>
   <v>       0.87469734       0.87750875       0.49659534 </v>
   <v>       0.92945581       0.89441581       0.50284320 </v>
   <v>       0.87750246       0.96842685       0.49650877 </v>
   <v>       0.86182562       0.02234486       0.49206848 </v>
   <v>       0.89692072       0.06675113       0.49035668 </v>
   <v>       0.96851741       0.11689073       0.49058671 </v>
   <v>       0.92292388       0.15320814       0.48654533 </v>
   <v>       0.87825700       0.12200353       0.48713408 </v>
   <v>       0.02223209       0.13473227       0.49241850 </v>
   <v>       0.06766741       0.10159811       0.49608881 </v>
   <v>       0.11962216       0.02763053       0.50251460 </v>
   <v>       0.15385822       0.07363519       0.50727947 </v>
   <v>       0.12232150       0.11853365       0.50344032 </v>
   <v>       0.13543884       0.97370537       0.50645184 </v>
   <v>       0.10037210       0.92930113       0.50758642 </v>
   <v>       0.02873636       0.87921452       0.50741293 </v>
   <v>       0.07435830       0.84289438       0.51175930 </v>
   <v>       0.11902578       0.87408730       0.51102141 </v>
   <v>       0.97496542       0.86135236       0.50602917 </v>
   <v>       0.96500365       0.80255612       0.50677687 </v>
   <v>       0.93868333       0.77804671       0.56065133 </v>
   <v>       0.93032121       0.72275590       0.56140424 </v>
   <v>       0.94789938       0.69065391       0.50847318 </v>
   <v>       0.19428495       0.96375130       0.50988461 </v>
   <v>       0.21789239       0.94058886       0.56655551 </v>
   <v>       0.27321267       0.93205624       0.56928709 </v>
   <v>       0.30632933       0.94648050       0.51574895 </v>
   <v>       0.03278838       0.19348256       0.49259496 </v>
   <v>       0.05606446       0.30438170       0.49554541 </v>
   <v>       0.02894886       0.27970173       0.54866989 </v>
   <v>       0.01744426       0.22509470       0.54736079 </v>
   <v>       0.80303100       0.03291796       0.48978764 </v>
   <v>       0.77067875       0.02111702       0.54533315 </v>
   <v>       0.71603539       0.03282113       0.54469589 </v>
   <v>       0.69202291       0.05653157       0.48868429 </v>
   <v>       0.36632783       0.93941356       0.51915327 </v>
   <v>       0.94113079       0.63071237       0.50994718 </v>
   <v>       0.63291593       0.06862646       0.48904317 </v>
   <v>       0.06769552       0.36347337       0.49776936 </v>
   <v>       0.47335083       0.04547724       0.53077200 </v>
   <v>       0.44547267       0.99984820       0.50874491 </v>
   <v>       0.04564612       0.52376330       0.53157451 </v>
   <v>       0.00141573       0.55160542       0.50549237 </v>
   <v>       0.97389053       0.71519664       0.45433438 </v>
   <v>       0.98219522       0.77025898       0.45332582 </v>
   <v>       0.28275979       0.96962742       0.45903181 </v>
   <v>       0.22765523       0.97802534       0.45602190 </v>
   <v>       0.05951105       0.21828264       0.43907362 </v>
   <v>       0.07088736       0.27294710       0.44053445 </v>
   <v>       0.77882626       0.05585799       0.43323468 </v>
   <v>       0.72411219       0.06746452       0.43276190 </v>
   <v>       0.54895349       0.01810886       0.47523767 </v>
   <v>       0.51980486       0.97352218       0.44973906 </v>
   <v>       0.01950992       0.44746710       0.47678066 </v>
   <v>       0.97637067       0.47646485       0.44746418 </v>
   <v>       0.69161927       0.02422730       0.58876458 </v>
   <v>       0.78900893       0.00359711       0.58975841 </v>
   <v>       0.79998485       0.92417948       0.48690291 </v>
   <v>       0.86183640       0.83610177       0.49416785 </v>
   <v>       0.96253759       0.97296703       0.50460631 </v>
   <v>       0.03465427       0.02301079       0.49316464 </v>
   <v>       0.83674612       0.13491495       0.48581838 </v>
   <v>       0.92504393       0.19652271       0.48374090 </v>
   <v>       0.99704892       0.20628449       0.58952041 </v>
   <v>       0.01737240       0.30358491       0.59206752 </v>
   <v>       0.13513680       0.15992074       0.50658133 </v>
   <v>       0.19694866       0.07195139       0.51407302 </v>
   <v>       0.07230136       0.79960235       0.51498197 </v>
   <v>       0.16053811       0.86118997       0.51248727 </v>
   <v>       0.19263070       0.92968693       0.60896794 </v>
   <v>       0.29095087       0.91414233       0.61393621 </v>
   <v>       0.91012250       0.70424181       0.60402176 </v>
   <v>       0.92538634       0.80253234       0.60265699 </v>
   <v>       0.37692047       0.91201866       0.56061461 </v>
   <v>       0.91180910       0.61922701       0.54898952 </v>
   <v>       0.61880090       0.07483285       0.54073494 </v>
   <v>       0.06988270       0.37733443       0.55008912 </v>
   <v>       0.45403013       0.07554477       0.56232583 </v>
   <v>       0.37833361       0.01473391       0.56343061 </v>
   <v>       0.07461321       0.54337895       0.56452218 </v>
   <v>       0.01477032       0.61956818       0.55890243 </v>
   <v>       0.70599120       0.08558964       0.38852332 </v>
   <v>       0.80346328       0.06488737       0.38957507 </v>
   <v>       0.07145315       0.19421305       0.39606677 </v>
   <v>       0.09179475       0.29154950       0.39854558 </v>
   <v>       0.20972597       0.99559795       0.41137425 </v>
   <v>       0.30817956       0.98123819       0.41699823 </v>
   <v>       0.00220991       0.78896577       0.41081182 </v>
   <v>       0.98788686       0.69054716       0.41278708 </v>
   <v>       0.38168309       0.92118188       0.47299607 </v>
   <v>       0.92520283       0.61595551       0.46215939 </v>
   <v>       0.62439119       0.10594508       0.46174961 </v>
   <v>       0.10693154       0.37246833       0.47512332 </v>
   <v>       0.57227911       0.95319950       0.37582525 </v>
   <v>       0.51905450       0.91107695       0.38560603 </v>
   <v>       0.62367123       0.98960002       0.45814530 </v>
   <v>       0.95825396       0.42287660       0.37396161 </v>
   <v>       0.91645323       0.47655505       0.37956628 </v>
   <v>       0.99065840       0.37297900       0.45964145 </v>
  </varray>
 </structure>
</modeling>
