<?xml version="1.0" encoding="ISO-8859-1"?>
<modeling>
 <generator>
  <i name="program" type="string">vasp </i>
  <i name="version" type="string">5.4.4.18Apr17-6-g9f103f2a35  </i>
  <i name="subversion" type="string">(build Jun 07 2020 16:50:00) complex            parallel </i>
  <i name="platform" type="string">LinuxIFC </i>
  <i name="date" type="string">2023 02 23 </i>
  <i name="time" type="string">19:42:33 </i>
 </generator>
 <incar>
  <i type="string" name="SYSTEM">Simulation for cell shape cell volume r</i>
  <i type="int" name="ISTART">     1</i>
  <i type="string" name="PREC">high</i>
  <i type="string" name="ALGO">48</i>
  <i type="int" name="ICHARG">    11</i>
  <i type="int" name="NELM">   200</i>
  <i type="int" name="IBRION">    -1</i>
  <i name="EDIFF">      0.00001000</i>
  <i name="EDIFFG">     -0.01000000</i>
  <i type="int" name="NSW">     0</i>
  <i type="int" name="ISIF">     2</i>
  <i name="ENCUT">    500.00000000</i>
  <i name="POTIM">      0.30000000</i>
  <i type="string" name="LREAL">A</i>
  <i type="int" name="ISMEAR">     0</i>
  <i name="SIGMA">      0.01000000</i>
  <i type="int" name="NWRITE">     0</i>
  <i type="logical" name="LWAVE"> F  </i>
  <i type="logical" name="LCHARG"> F  </i>
  <v type="int" name="KPOINT_BSE">    -1     0     0     0</v>
  <i type="int" name="NELM">   200</i>
  <i type="string" name="GGA">PE</i>
 </incar>
 <structure name="primitive_cell" >
  <crystal>
   <varray name="basis" >
    <v>      29.20465946      -0.00171335       0.00000000 </v>
    <v>     -14.60371546      25.31943412       0.00000000 </v>
    <v>       0.00000000       0.00000000      20.00000000 </v>
   </varray>
   <i name="volume">  14788.40859633 </i>
   <varray name="rec_basis" >
    <v>       0.03424227       0.01975022       0.00000000 </v>
    <v>       0.00000232       0.03949669       0.00000000 </v>
    <v>       0.00000000       0.00000000       0.05000000 </v>
   </varray>
  </crystal>
  <varray name="positions" >
   <v>       0.48406372      -0.48554308       0.42979047 </v>
   <v>       0.47237727      -0.47433222       0.38357233 </v>
   <v>      -0.48860197       0.48708613       0.42971576 </v>
   <v>       0.47164606      -0.47231161       0.49200650 </v>
   <v>      -0.47745995       0.47546473       0.38340432 </v>
   <v>      -0.47535905       0.47454232       0.49184429 </v>
   <v>       0.48542003      -0.48526168      -0.44968863 </v>
   <v>       0.44229567      -0.44291693       0.49615155 </v>
   <v>      -0.48822273       0.48829356      -0.44976619 </v>
   <v>       0.38686429      -0.47030731       0.49723108 </v>
   <v>       0.46974146      -0.38753665       0.49747182 </v>
   <v>       0.36537405       0.48659670       0.49690480 </v>
   <v>      -0.48712906      -0.36610119       0.49728975 </v>
   <v>      -0.44605987       0.44507860       0.49583446 </v>
   <v>       0.48330551       0.36828114       0.49660863 </v>
   <v>      -0.36905374      -0.48452796       0.49685287 </v>
   <v>      -0.47356452       0.38968706       0.49691750 </v>
   <v>      -0.39062988       0.47237769       0.49707948 </v>
   <v>       0.35933030      -0.44283050       0.49889376 </v>
   <v>       0.44226918      -0.35999770       0.49908443 </v>
   <v>       0.38674268      -0.38734753       0.49947658 </v>
   <v>       0.31627625      -0.46385944       0.49960373 </v>
   <v>       0.46333211      -0.31697953       0.49989198 </v>
   <v>      -0.44617212       0.36206101       0.49858011 </v>
   <v>      -0.36318141       0.44481068       0.49870096 </v>
   <v>      -0.39065006       0.38932778       0.49914441 </v>
   <v>       0.35749515      -0.35807621      -0.49989877 </v>
   <v>      -0.46729390       0.31903829       0.49935254 </v>
   <v>      -0.32012905       0.46576798       0.49953189 </v>
   <v>       0.30437024      -0.38637447      -0.49998667 </v>
   <v>       0.38583099      -0.30498927      -0.49971703 </v>
   <v>      -0.36142433       0.36003328       0.49984062 </v>
   <v>       0.21498914      -0.46387741       0.49988938 </v>
   <v>       0.46321281      -0.21569988      -0.49980962 </v>
   <v>       0.27953812      -0.35808766      -0.49987411 </v>
   <v>       0.35743983      -0.28024473      -0.49967373 </v>
   <v>      -0.30829842       0.38835846       0.49989063 </v>
   <v>      -0.38973822       0.30693901       0.49993471 </v>
   <v>       0.30431851      -0.30499941      -0.49975353 </v>
   <v>       0.19294795      -0.44286948       0.49910934 </v>
   <v>       0.44216253      -0.19369998       0.49927020 </v>
   <v>       0.22101221      -0.38738592       0.49958433 </v>
   <v>       0.38664573      -0.22178959       0.49978308 </v>
   <v>      -0.21899514       0.46581759       0.49972616 </v>
   <v>      -0.46727364       0.21754290       0.49993674 </v>
   <v>      -0.28348085       0.36004421      -0.49997704 </v>
   <v>      -0.36138160       0.28217188      -0.49990446 </v>
   <v>       0.13793104      -0.47037212       0.49747442 </v>
   <v>       0.46961099      -0.13874284       0.49740279 </v>
   <v>       0.11633167       0.48652979       0.49722140 </v>
   <v>      -0.48726130      -0.11712163       0.49708742 </v>
   <v>      -0.19691801       0.44484063       0.49895805 </v>
   <v>      -0.44619150       0.19557614       0.49907964 </v>
   <v>      -0.30823178       0.30694500      -0.49985299 </v>
   <v>      -0.22494848       0.38935759       0.49943202 </v>
   <v>      -0.39066210       0.22368383       0.49961362 </v>
   <v>       0.19282298      -0.36006039       0.49914359 </v>
   <v>       0.35919995      -0.19371510       0.49916002 </v>
   <v>       0.21478188      -0.31704699       0.49994301 </v>
   <v>       0.31614800      -0.21570312      -0.49996498 </v>
   <v>      -0.12034597      -0.48452239       0.49711220 </v>
   <v>       0.48321596       0.11898336       0.49697209 </v>
   <v>      -0.14189840       0.47238354       0.49734576 </v>
   <v>      -0.47365168       0.14060743       0.49730369 </v>
   <v>       0.10987636      -0.44299920       0.49629041 </v>
   <v>       0.44214181      -0.11079104       0.49603126 </v>
   <v>       0.13780792      -0.38761627       0.49751342 </v>
   <v>       0.38671013      -0.13875467       0.49725615 </v>
   <v>      -0.19671175       0.36207527       0.49890853 </v>
   <v>      -0.36325613       0.19557193       0.49920397 </v>
   <v>      -0.21864795       0.31905229       0.49966409 </v>
   <v>      -0.32021104       0.21756610      -0.49986216 </v>
   <v>       0.05112668      -0.47236194       0.49218758 </v>
   <v>       0.47149663      -0.05209362       0.49190065 </v>
   <v>       0.11611240      -0.36618572       0.49726269 </v>
   <v>       0.36520711      -0.11713135       0.49683839 </v>
   <v>       0.04830388      -0.47399347       0.38375738 </v>
   <v>      -0.11377980       0.44507483       0.49613796 </v>
   <v>      -0.44619521       0.11263957       0.49606644 </v>
   <v>       0.47262981      -0.04920838       0.38343991 </v>
   <v>      -0.14168667       0.38968489       0.49725089 </v>
   <v>      -0.39076989       0.14060306       0.49744860 </v>
   <v>       0.02543792      -0.48536164       0.42999889 </v>
   <v>       0.48413885      -0.02640953       0.42971973 </v>
   <v>       0.02444818      -0.48546577      -0.44945358 </v>
   <v>       0.48503431      -0.02546138      -0.44972347 </v>
   <v>      -0.05500944       0.47454087       0.49210079 </v>
   <v>      -0.47553126       0.05393837       0.49190937 </v>
   <v>      -0.47723732       0.05108045       0.38348890 </v>
   <v>      -0.05207050       0.47577430       0.38364860 </v>
   <v>      -0.11998488       0.36826355       0.49694459 </v>
   <v>      -0.36926479       0.11898597       0.49721684 </v>
   <v>      -0.02927440       0.48726588       0.42994310 </v>
   <v>      -0.48852638       0.02825450       0.42973314 </v>
   <v>      -0.02834539       0.48812227      -0.44952463 </v>
   <v>      -0.48863473       0.02730444      -0.44973616 </v>
  </varray>
 </structure>
 <varray name="primitive_index" >
  <v type="int" >        1 </v>
  <v type="int" >       67 </v>
  <v type="int" >       54 </v>
  <v type="int" >        2 </v>
  <v type="int" >       96 </v>
  <v type="int" >       53 </v>
  <v type="int" >       55 </v>
  <v type="int" >       21 </v>
  <v type="int" >       66 </v>
  <v type="int" >       20 </v>
  <v type="int" >       22 </v>
  <v type="int" >       73 </v>
  <v type="int" >       75 </v>
  <v type="int" >       42 </v>
  <v type="int" >       87 </v>
  <v type="int" >       85 </v>
  <v type="int" >       43 </v>
  <v type="int" >       41 </v>
  <v type="int" >       19 </v>
  <v type="int" >       23 </v>
  <v type="int" >       18 </v>
  <v type="int" >       72 </v>
  <v type="int" >       74 </v>
  <v type="int" >       44 </v>
  <v type="int" >       40 </v>
  <v type="int" >       39 </v>
  <v type="int" >        5 </v>
  <v type="int" >       86 </v>
  <v type="int" >       84 </v>
  <v type="int" >       58 </v>
  <v type="int" >       57 </v>
  <v type="int" >       26 </v>
  <v type="int" >       71 </v>
  <v type="int" >       76 </v>
  <v type="int" >        3 </v>
  <v type="int" >        4 </v>
  <v type="int" >       61 </v>
  <v type="int" >       60 </v>
  <v type="int" >       56 </v>
  <v type="int" >       17 </v>
  <v type="int" >       11 </v>
  <v type="int" >       12 </v>
  <v type="int" >        6 </v>
  <v type="int" >       83 </v>
  <v type="int" >       88 </v>
  <v type="int" >       24 </v>
  <v type="int" >       25 </v>
  <v type="int" >       16 </v>
  <v type="int" >       10 </v>
  <v type="int" >       70 </v>
  <v type="int" >       77 </v>
  <v type="int" >       38 </v>
  <v type="int" >       32 </v>
  <v type="int" >       59 </v>
  <v type="int" >       33 </v>
  <v type="int" >       27 </v>
  <v type="int" >       13 </v>
  <v type="int" >        7 </v>
  <v type="int" >       69 </v>
  <v type="int" >       79 </v>
  <v type="int" >       82 </v>
  <v type="int" >       89 </v>
  <v type="int" >       37 </v>
  <v type="int" >       31 </v>
  <v type="int" >       15 </v>
  <v type="int" >        9 </v>
  <v type="int" >       14 </v>
  <v type="int" >        8 </v>
  <v type="int" >       34 </v>
  <v type="int" >       28 </v>
  <v type="int" >       81 </v>
  <v type="int" >       91 </v>
  <v type="int" >       52 </v>
  <v type="int" >       48 </v>
  <v type="int" >       68 </v>
  <v type="int" >       78 </v>
  <v type="int" >       94 </v>
  <v type="int" >       36 </v>
  <v type="int" >       30 </v>
  <v type="int" >       92 </v>
  <v type="int" >       35 </v>
  <v type="int" >       29 </v>
  <v type="int" >       51 </v>
  <v type="int" >       47 </v>
  <v type="int" >       64 </v>
  <v type="int" >       62 </v>
  <v type="int" >       49 </v>
  <v type="int" >       45 </v>
  <v type="int" >       93 </v>
  <v type="int" >       95 </v>
  <v type="int" >       80 </v>
  <v type="int" >       90 </v>
  <v type="int" >       50 </v>
  <v type="int" >       46 </v>
  <v type="int" >       65 </v>
  <v type="int" >       63 </v>
 </varray>
 <kpoints>
  <generation param="listgenerated">
   <i name="divisions" type="int">      20 </i>
   <v>       0.00000000       0.00000000       0.00000000 </v>
   <v>       0.50000000       0.00000000       0.00000000 </v>
   <v>       0.33333333       0.33333333       0.00000000 </v>
   <v>       0.00000000       0.00000000       0.00000000 </v>
  </generation>
  <varray name="kpointlist" >
   <v>       0.00000000       0.00000000       0.00000000 </v>
   <v>       0.02631579       0.00000000       0.00000000 </v>
   <v>       0.05263158       0.00000000       0.00000000 </v>
   <v>       0.07894737       0.00000000       0.00000000 </v>
   <v>       0.10526316       0.00000000       0.00000000 </v>
   <v>       0.13157895       0.00000000       0.00000000 </v>
   <v>       0.15789474       0.00000000       0.00000000 </v>
   <v>       0.18421053       0.00000000       0.00000000 </v>
   <v>       0.21052632       0.00000000       0.00000000 </v>
   <v>       0.23684211       0.00000000       0.00000000 </v>
   <v>       0.26315789       0.00000000       0.00000000 </v>
   <v>       0.28947368       0.00000000       0.00000000 </v>
   <v>       0.31578947       0.00000000       0.00000000 </v>
   <v>       0.34210526       0.00000000       0.00000000 </v>
   <v>       0.36842105       0.00000000       0.00000000 </v>
   <v>       0.39473684       0.00000000       0.00000000 </v>
   <v>       0.42105263       0.00000000       0.00000000 </v>
   <v>       0.44736842       0.00000000       0.00000000 </v>
   <v>       0.47368421       0.00000000       0.00000000 </v>
   <v>       0.50000000       0.00000000       0.00000000 </v>
   <v>       0.50000000       0.00000000       0.00000000 </v>
   <v>       0.49122807       0.01754386       0.00000000 </v>
   <v>       0.48245614       0.03508772       0.00000000 </v>
   <v>       0.47368421       0.05263158       0.00000000 </v>
   <v>       0.46491228       0.07017544       0.00000000 </v>
   <v>       0.45614035       0.08771930       0.00000000 </v>
   <v>       0.44736842       0.10526316       0.00000000 </v>
   <v>       0.43859649       0.12280702       0.00000000 </v>
   <v>       0.42982456       0.14035088       0.00000000 </v>
   <v>       0.42105263       0.15789474       0.00000000 </v>
   <v>       0.41228070       0.17543860       0.00000000 </v>
   <v>       0.40350877       0.19298246       0.00000000 </v>
   <v>       0.39473684       0.21052632       0.00000000 </v>
   <v>       0.38596491       0.22807018       0.00000000 </v>
   <v>       0.37719298       0.24561404       0.00000000 </v>
   <v>       0.36842105       0.26315789       0.00000000 </v>
   <v>       0.35964912       0.28070175       0.00000000 </v>
   <v>       0.35087719       0.29824561       0.00000000 </v>
   <v>       0.34210526       0.31578947       0.00000000 </v>
   <v>       0.33333333       0.33333333       0.00000000 </v>
   <v>       0.33333333       0.33333333       0.00000000 </v>
   <v>       0.31578947       0.31578947       0.00000000 </v>
   <v>       0.29824561       0.29824561       0.00000000 </v>
   <v>       0.28070175       0.28070175       0.00000000 </v>
   <v>       0.26315789       0.26315789       0.00000000 </v>
   <v>       0.24561404       0.24561404       0.00000000 </v>
   <v>       0.22807018       0.22807018       0.00000000 </v>
   <v>       0.21052632       0.21052632       0.00000000 </v>
   <v>       0.19298246       0.19298246       0.00000000 </v>
   <v>       0.17543860       0.17543860       0.00000000 </v>
   <v>       0.15789474       0.15789474       0.00000000 </v>
   <v>       0.14035088       0.14035088       0.00000000 </v>
   <v>       0.12280702       0.12280702       0.00000000 </v>
   <v>       0.10526316       0.10526316       0.00000000 </v>
   <v>       0.08771930       0.08771930       0.00000000 </v>
   <v>       0.07017544       0.07017544       0.00000000 </v>
   <v>       0.05263158       0.05263158       0.00000000 </v>
   <v>       0.03508772       0.03508772       0.00000000 </v>
   <v>       0.01754386       0.01754386       0.00000000 </v>
   <v>       0.00000000       0.00000000       0.00000000 </v>
  </varray>
  <varray name="weights" >
   <v>       0.01666667 </v>
   <v>       0.01666667 </v>
   <v>       0.01666667 </v>
   <v>       0.01666667 </v>
   <v>       0.01666667 </v>
   <v>       0.01666667 </v>
   <v>       0.01666667 </v>
   <v>       0.01666667 </v>
   <v>       0.01666667 </v>
   <v>       0.01666667 </v>
   <v>       0.01666667 </v>
   <v>       0.01666667 </v>
   <v>       0.01666667 </v>
   <v>       0.01666667 </v>
   <v>       0.01666667 </v>
   <v>       0.01666667 </v>
   <v>       0.01666667 </v>
   <v>       0.01666667 </v>
   <v>       0.01666667 </v>
   <v>       0.01666667 </v>
   <v>       0.01666667 </v>
   <v>       0.01666667 </v>
   <v>       0.01666667 </v>
   <v>       0.01666667 </v>
   <v>       0.01666667 </v>
   <v>       0.01666667 </v>
   <v>       0.01666667 </v>
   <v>       0.01666667 </v>
   <v>       0.01666667 </v>
   <v>       0.01666667 </v>
   <v>       0.01666667 </v>
   <v>       0.01666667 </v>
   <v>       0.01666667 </v>
   <v>       0.01666667 </v>
   <v>       0.01666667 </v>
   <v>       0.01666667 </v>
   <v>       0.01666667 </v>
   <v>       0.01666667 </v>
   <v>       0.01666667 </v>
   <v>       0.01666667 </v>
   <v>       0.01666667 </v>
   <v>       0.01666667 </v>
   <v>       0.01666667 </v>
   <v>       0.01666667 </v>
   <v>       0.01666667 </v>
   <v>       0.01666667 </v>
   <v>       0.01666667 </v>
   <v>       0.01666667 </v>
   <v>       0.01666667 </v>
   <v>       0.01666667 </v>
   <v>       0.01666667 </v>
   <v>       0.01666667 </v>
   <v>       0.01666667 </v>
   <v>       0.01666667 </v>
   <v>       0.01666667 </v>
   <v>       0.01666667 </v>
   <v>       0.01666667 </v>
   <v>       0.01666667 </v>
   <v>       0.01666667 </v>
   <v>       0.01666667 </v>
  </varray>
 </kpoints>
 <parameters>
  <separator name="general" >
   <i type="string" name="SYSTEM">Simulation for cell shape cell volume r</i>
   <i type="logical" name="LCOMPAT"> F  </i>
  </separator>
  <separator name="electronic" >
   <i type="string" name="PREC">high</i>
   <i name="ENMAX">    500.00000000</i>
   <i name="ENAUG">    644.87300000</i>
   <i name="EDIFF">      0.00001000</i>
   <i type="int" name="IALGO">    38</i>
   <i type="int" name="IWAVPR">    10</i>
   <i type="int" name="NBANDS">   208</i>
   <i name="NELECT">    306.00000000</i>
   <i type="int" name="TURBO">     0</i>
   <i type="int" name="IRESTART">     0</i>
   <i type="int" name="NREBOOT">     0</i>
   <i type="int" name="NMIN">     0</i>
   <i name="EREF">      0.00000000</i>
   <separator name="electronic smearing" >
    <i type="int" name="ISMEAR">     0</i>
    <i name="SIGMA">      0.01000000</i>
    <i name="KSPACING">      0.50000000</i>
    <i type="logical" name="KGAMMA"> T  </i>
   </separator>
   <separator name="electronic projectors" >
    <i type="logical" name="LREAL"> T  </i>
    <v name="ROPT">     -0.00040000     -0.00040000     -0.00040000</v>
    <i type="int" name="LMAXPAW">  -100</i>
    <i type="int" name="LMAXMIX">     2</i>
    <i type="logical" name="NLSPLINE"> F  </i>
   </separator>
   <separator name="electronic startup" >
    <i type="int" name="ISTART">     1</i>
    <i type="int" name="ICHARG">    11</i>
    <i type="int" name="INIWAV">     1</i>
   </separator>
   <separator name="electronic spin" >
    <i type="int" name="ISPIN">     1</i>
    <i type="logical" name="LNONCOLLINEAR"> F  </i>
    <v name="MAGMOM">      1.00000000      1.00000000      1.00000000      1.00000000      1.00000000      1.00000000      1.00000000      1.00000000      1.00000000      1.00000000      1.00000000      1.00000000      1.00000000      1.00000000      1.00000000      1.00000000      1.00000000      1.00000000      1.00000000      1.00000000
      1.00000000      1.00000000      1.00000000      1.00000000      1.00000000      1.00000000      1.00000000      1.00000000      1.00000000      1.00000000      1.00000000      1.00000000      1.00000000      1.00000000      1.00000000      1.00000000      1.00000000      1.00000000      1.00000000      1.00000000
      1.00000000      1.00000000      1.00000000      1.00000000      1.00000000      1.00000000      1.00000000      1.00000000      1.00000000      1.00000000      1.00000000      1.00000000      1.00000000      1.00000000      1.00000000      1.00000000      1.00000000      1.00000000      1.00000000      1.00000000
      1.00000000      1.00000000      1.00000000      1.00000000      1.00000000      1.00000000      1.00000000      1.00000000      1.00000000      1.00000000      1.00000000      1.00000000      1.00000000      1.00000000      1.00000000      1.00000000      1.00000000      1.00000000      1.00000000      1.00000000
      1.00000000      1.00000000      1.00000000      1.00000000      1.00000000      1.00000000      1.00000000      1.00000000      1.00000000      1.00000000      1.00000000      1.00000000      1.00000000      1.00000000      1.00000000      1.00000000</v>
    <i name="NUPDOWN">     -1.00000000</i>
    <i type="logical" name="LSORBIT"> F  </i>
    <v name="SAXIS">      0.00000000      0.00000000      1.00000000</v>
    <i type="logical" name="LSPIRAL"> F  </i>
    <v name="QSPIRAL">      0.00000000      0.00000000      0.00000000</v>
    <i type="logical" name="LZEROZ"> F  </i>
   </separator>
   <separator name="electronic exchange-correlation" >
    <i type="logical" name="LASPH"> F  </i>
    <i type="logical" name="LMETAGGA"> F  </i>
   </separator>
   <separator name="electronic convergence" >
    <i type="int" name="NELM">   200</i>
    <i type="int" name="NELMDL">     0</i>
    <i type="int" name="NELMIN">     2</i>
    <i name="ENINI">    500.00000000</i>
    <separator name="electronic convergence detail" >
     <i type="logical" name="LDIAG"> T  </i>
     <i type="logical" name="LSUBROT"> F  </i>
     <i name="WEIMIN">      0.00000000</i>
     <i name="EBREAK">      0.00000001</i>
     <i name="DEPER">      0.30000000</i>
     <i type="int" name="NRMM">     4</i>
     <i name="TIME">      0.40000000</i>
    </separator>
   </separator>
   <separator name="electronic mixer" >
    <i name="AMIX">      0.40000000</i>
    <i name="BMIX">      1.00000000</i>
    <i name="AMIN">      0.10000000</i>
    <i name="AMIX_MAG">      1.60000000</i>
    <i name="BMIX_MAG">      1.00000000</i>
    <separator name="electronic mixer details" >
     <i type="int" name="IMIX">     4</i>
     <i type="logical" name="MIXFIRST"> F  </i>
     <i type="int" name="MAXMIX">   -45</i>
     <i name="WC">    100.00000000</i>
     <i type="int" name="INIMIX">     1</i>
     <i type="int" name="MIXPRE">     1</i>
     <i type="int" name="MREMOVE">     5</i>
    </separator>
   </separator>
   <separator name="electronic dipolcorrection" >
    <i type="logical" name="LDIPOL"> F  </i>
    <i type="logical" name="LMONO"> F  </i>
    <i type="int" name="IDIPOL">     0</i>
    <i name="EPSILON">      1.00000000</i>
    <v name="DIPOL">   -100.00000000   -100.00000000   -100.00000000</v>
    <i name="EFIELD">      0.00000000</i>
   </separator>
  </separator>
  <separator name="grids" >
   <i type="int" name="NGX">   216</i>
   <i type="int" name="NGY">   216</i>
   <i type="int" name="NGZ">   150</i>
   <i type="int" name="NGXF">   324</i>
   <i type="int" name="NGYF">   324</i>
   <i type="int" name="NGZF">   224</i>
   <i type="logical" name="ADDGRID"> F  </i>
  </separator>
  <separator name="ionic" >
   <i type="int" name="NSW">     0</i>
   <i type="int" name="IBRION">    -1</i>
   <i type="int" name="MDALGO">     0</i>
   <i type="int" name="ISIF">     2</i>
   <i name="PSTRESS">      0.00000000</i>
   <i name="EDIFFG">     -0.01000000</i>
   <i type="int" name="NFREE">     0</i>
   <i name="POTIM">      0.30000000</i>
   <i name="SMASS">     -3.00000000</i>
   <i name="SCALEE">      1.00000000</i>
  </separator>
  <separator name="ionic md" >
   <i name="TEBEG">      0.00010000</i>
   <i name="TEEND">      0.00010000</i>
   <i type="int" name="NBLOCK">     1</i>
   <i type="int" name="KBLOCK">     1</i>
   <i type="int" name="NPACO">   256</i>
   <i name="APACO">     16.00000000</i>
  </separator>
  <separator name="symmetry" >
   <i type="int" name="ISYM">     2</i>
   <i name="SYMPREC">      0.00001000</i>
  </separator>
  <separator name="dos" >
   <i type="int" name="LORBIT">     0</i>
   <v name="RWIGS">     -1.00000000     -1.00000000     -1.00000000</v>
   <i type="int" name="NEDOS">   301</i>
   <i name="EMIN">     10.00000000</i>
   <i name="EMAX">    -10.00000000</i>
   <i name="EFERMI">      0.00000000</i>
  </separator>
  <separator name="writing" >
   <i type="int" name="NWRITE">     0</i>
   <i type="logical" name="LWAVE"> F  </i>
   <i type="logical" name="LDOWNSAMPLE"> F  </i>
   <i type="logical" name="LCHARG"> F  </i>
   <i type="logical" name="LPARD"> F  </i>
   <i type="logical" name="LVTOT"> F  </i>
   <i type="logical" name="LVHAR"> F  </i>
   <i type="logical" name="LELF"> F  </i>
   <i type="logical" name="LOPTICS"> F  </i>
   <v name="STM">      0.00000000      0.00000000      0.00000000      0.00000000      0.00000000      0.00000000      0.00000000</v>
  </separator>
  <separator name="performance" >
   <i type="int" name="NPAR">    16</i>
   <i type="int" name="NSIM">     4</i>
   <i type="int" name="NBLK">    -1</i>
   <i type="logical" name="LPLANE"> T  </i>
   <i type="logical" name="LSCALAPACK"> T  </i>
   <i type="logical" name="LSCAAWARE"> F  </i>
   <i type="logical" name="LSCALU"> F  </i>
   <i type="logical" name="LASYNC"> F  </i>
   <i type="logical" name="LORBITALREAL"> F  </i>
  </separator>
  <separator name="miscellaneous" >
   <i type="int" name="IDIOT">     3</i>
   <i type="int" name="ISPECIAL">     0</i>
   <i type="logical" name="LMUSIC"> F  </i>
   <v name="POMASS">     12.01100000     14.00100000      1.00000000</v>
   <v name="DARWINR">      0.00000000      0.00000000      0.00000000</v>
   <v name="DARWINV">      1.00000000      1.00000000      1.00000000</v>
   <i type="logical" name="LCORR"> T  </i>
  </separator>
  <i type="logical" name="GGA_COMPAT"> T  </i>
  <i type="logical" name="LBERRY"> F  </i>
  <i type="int" name="ICORELEVEL">     0</i>
  <i type="logical" name="LDAU"> F  </i>
  <i type="int" name="I_CONSTRAINED_M">     0</i>
  <separator name="electronic exchange-correlation" >
   <i type="string" name="GGA">PE</i>
   <i type="int" name="VOSKOWN">     0</i>
   <i type="logical" name="LHFCALC"> F  </i>
   <i type="string" name="PRECFOCK"></i>
   <i type="logical" name="LSYMGRAD"> F  </i>
   <i type="logical" name="LHFONE"> F  </i>
   <i type="logical" name="LRHFCALC"> F  </i>
   <i type="logical" name="LTHOMAS"> F  </i>
   <i type="logical" name="LMODELHF"> F  </i>
   <i name="ENCUT4O">     -1.00000000</i>
   <i type="int" name="EXXOEP">     0</i>
   <i type="int" name="FOURORBIT">     0</i>
   <i name="AEXX">      0.00000000</i>
   <i name="HFALPHA">      0.00000000</i>
   <i name="MCALPHA">      0.00000000</i>
   <i name="ALDAX">      1.00000000</i>
   <i name="AGGAX">      1.00000000</i>
   <i name="ALDAC">      1.00000000</i>
   <i name="AGGAC">      1.00000000</i>
   <i type="int" name="NKREDX">     1</i>
   <i type="int" name="NKREDY">     1</i>
   <i type="int" name="NKREDZ">     1</i>
   <i type="logical" name="SHIFTRED"> F  </i>
   <i type="logical" name="ODDONLY"> F  </i>
   <i type="logical" name="EVENONLY"> F  </i>
   <i type="int" name="LMAXFOCK">     0</i>
   <i type="int" name="NMAXFOCKAE">     0</i>
   <i type="logical" name="LFOCKAEDFT"> F  </i>
   <i name="HFSCREEN">      0.00000000</i>
   <i name="HFSCREENC">      0.00000000</i>
   <i type="int" name="NBANDSGWLOW">     0</i>
  </separator>
  <separator name="vdW DFT" >
   <i type="logical" name="LUSE_VDW"> F  </i>
   <i name="Zab_VDW">     -0.84910000</i>
   <i name="PARAM1">      0.12340000</i>
   <i name="PARAM2">      1.00000000</i>
   <i name="PARAM3">      0.00000000</i>
  </separator>
  <separator name="model GW" >
   <i type="int" name="MODEL_GW">     0</i>
   <i name="MODEL_EPS0">     92.42755373</i>
   <i name="MODEL_ALPHA">      1.00000000</i>
  </separator>
  <separator name="linear response parameters" >
   <i type="logical" name="LEPSILON"> F  </i>
   <i type="logical" name="LRPA"> F  </i>
   <i type="logical" name="LNABLA"> F  </i>
   <i type="logical" name="LVEL"> F  </i>
   <i type="int" name="KINTER">     0</i>
   <i name="CSHIFT">      0.10000000</i>
   <i name="OMEGAMAX">     -1.00000000</i>
   <i name="DEG_THRESHOLD">      0.00200000</i>
   <i name="RTIME">     -0.10000000</i>
   <i name="WPLASMAI">      0.00000000</i>
   <v name="DFIELD">      0.00000000      0.00000000      0.00000000</v>
   <v name="WPLASMA">      0.00000000      0.00000000      0.00000000      0.00000000      0.00000000      0.00000000      0.00000000      0.00000000      0.00000000</v>
  </separator>
  <separator name="orbital magnetization" >
   <i type="logical" name="NUCIND"> F  </i>
   <v name="MAGPOS">      0.00000000      0.00000000      0.00000000</v>
   <i type="logical" name="LNICSALL"> T  </i>
   <i type="logical" name="ORBITALMAG"> F  </i>
   <i type="logical" name="LMAGBLOCH"> F  </i>
   <i type="logical" name="LCHIMAG"> F  </i>
   <i type="logical" name="LGAUGE"> T  </i>
   <i type="int" name="MAGATOM">     0</i>
   <v name="MAGDIPOL">      0.00000000      0.00000000      0.00000000</v>
   <v name="AVECCONST">      0.00000000      0.00000000      0.00000000</v>
  </separator>
  <separator name="response functions" >
   <i type="logical" name="LADDER"> F  </i>
   <i type="logical" name="LRPAFORCE"> F  </i>
   <i type="logical" name="LFXC"> F  </i>
   <i type="logical" name="LHARTREE"> T  </i>
   <i type="int" name="IBSE">     0</i>
   <v type="int" name="KPOINT">    -1     0     0     0</v>
   <i type="logical" name="LTCTE"> F  </i>
   <i type="logical" name="LTETE"> F  </i>
   <i type="logical" name="LTRIPLET"> F  </i>
   <i type="logical" name="LFXCEPS"> F  </i>
   <i type="logical" name="LFXHEG"> F  </i>
   <i type="int" name="NATURALO">     2</i>
   <i type="logical" name="L2ORDER"> F  </i>
   <i type="logical" name="LMP2LT"> F  </i>
   <i type="logical" name="LUSEW"> F  </i>
   <i name="ENCUTGW">     -2.00000000</i>
   <i name="ENCUTGWSOFT">     -2.00000000</i>
   <i name="ENCUTLF">     -1.00000000</i>
   <i type="int" name="LMAXMP2">    -1</i>
   <i name="SCISSOR">      0.00000000</i>
   <i type="int" name="NOMEGA">     0</i>
   <i type="int" name="NOMEGAR">     0</i>
   <i type="int" name="NBANDSGW">    -1</i>
   <i type="int" name="NBANDSO">    -1</i>
   <i type="int" name="NBANDSV">    -1</i>
   <i type="int" name="NELM">   200</i>
   <i type="int" name="NELMHF">     1</i>
   <i type="int" name="DIM">     3</i>
   <i type="int" name="ANTIRES">     0</i>
   <i name="OMEGAMAX">    -30.00000000</i>
   <i name="OMEGAMIN">    -30.00000000</i>
   <i name="OMEGATL">   -200.00000000</i>
   <i type="int" name="OMEGAGRID">   140</i>
   <i name="CSHIFT">     -0.10000000</i>
   <i type="logical" name="SELFENERGY"> F  </i>
   <i type="logical" name="LSPECTRAL"> F  </i>
   <i type="logical" name="LSPECTRALGW"> F  </i>
   <i type="logical" name="LSINGLES"> F  </i>
   <i type="logical" name="LFERMIGW"> F  </i>
   <i type="logical" name="ODDONLYGW"> F  </i>
   <i type="logical" name="EVENONLYGW"> F  </i>
   <i type="int" name="NKREDLFX">     1</i>
   <i type="int" name="NKREDLFY">     1</i>
   <i type="int" name="NKREDLFZ">     1</i>
   <i type="int" name="MAXMEM">  2800</i>
   <i type="int" name="TELESCOPE">     0</i>
   <i type="int" name="TAUPAR">     1</i>
   <i type="int" name="OMEGAPAR">    -1</i>
   <i name="LAMBDA">      1.00000000</i>
  </separator>
  <separator name="External order field" >
   <i name="OFIELD_KAPPA">      0.00000000</i>
   <v name="OFIELD_K">      0.00000000      0.00000000      0.00000000</v>
   <i name="OFIELD_Q6_NEAR">      0.00000000</i>
   <i name="OFIELD_Q6_FAR">      0.00000000</i>
   <i name="OFIELD_A">      0.00000000</i>
  </separator>
  <separator name="solvation model" >
   <i type="logical" name="LSOL"> F  </i>
  </separator>
 </parameters>
 <atominfo>
  <atoms>      96 </atoms>
  <types>       3 </types>
  <array name="atoms" >
   <dimension dim="1">ion</dimension>
   <field type="string">element</field>
   <field type="int">atomtype</field>
   <set>
    <rc><c>C </c><c>   1</c></rc>
    <rc><c>C </c><c>   1</c></rc>
    <rc><c>C </c><c>   1</c></rc>
    <rc><c>C </c><c>   1</c></rc>
    <rc><c>C </c><c>   1</c></rc>
    <rc><c>C </c><c>   1</c></rc>
    <rc><c>C </c><c>   1</c></rc>
    <rc><c>C </c><c>   1</c></rc>
    <rc><c>C </c><c>   1</c></rc>
    <rc><c>C </c><c>   1</c></rc>
    <rc><c>C </c><c>   1</c></rc>
    <rc><c>C </c><c>   1</c></rc>
    <rc><c>C </c><c>   1</c></rc>
    <rc><c>C </c><c>   1</c></rc>
    <rc><c>C </c><c>   1</c></rc>
    <rc><c>C </c><c>   1</c></rc>
    <rc><c>C </c><c>   1</c></rc>
    <rc><c>C </c><c>   1</c></rc>
    <rc><c>C </c><c>   1</c></rc>
    <rc><c>C </c><c>   1</c></rc>
    <rc><c>C </c><c>   1</c></rc>
    <rc><c>C </c><c>   1</c></rc>
    <rc><c>C </c><c>   1</c></rc>
    <rc><c>C </c><c>   1</c></rc>
    <rc><c>C </c><c>   1</c></rc>
    <rc><c>C </c><c>   1</c></rc>
    <rc><c>C </c><c>   1</c></rc>
    <rc><c>C </c><c>   1</c></rc>
    <rc><c>C </c><c>   1</c></rc>
    <rc><c>C </c><c>   1</c></rc>
    <rc><c>C </c><c>   1</c></rc>
    <rc><c>C </c><c>   1</c></rc>
    <rc><c>C </c><c>   1</c></rc>
    <rc><c>C </c><c>   1</c></rc>
    <rc><c>C </c><c>   1</c></rc>
    <rc><c>C </c><c>   1</c></rc>
    <rc><c>C </c><c>   1</c></rc>
    <rc><c>C </c><c>   1</c></rc>
    <rc><c>C </c><c>   1</c></rc>
    <rc><c>C </c><c>   1</c></rc>
    <rc><c>C </c><c>   1</c></rc>
    <rc><c>C </c><c>   1</c></rc>
    <rc><c>C </c><c>   1</c></rc>
    <rc><c>C </c><c>   1</c></rc>
    <rc><c>C </c><c>   1</c></rc>
    <rc><c>C </c><c>   1</c></rc>
    <rc><c>C </c><c>   1</c></rc>
    <rc><c>C </c><c>   1</c></rc>
    <rc><c>C </c><c>   1</c></rc>
    <rc><c>C </c><c>   1</c></rc>
    <rc><c>C </c><c>   1</c></rc>
    <rc><c>C </c><c>   1</c></rc>
    <rc><c>C </c><c>   1</c></rc>
    <rc><c>C </c><c>   1</c></rc>
    <rc><c>N </c><c>   2</c></rc>
    <rc><c>N </c><c>   2</c></rc>
    <rc><c>N </c><c>   2</c></rc>
    <rc><c>N </c><c>   2</c></rc>
    <rc><c>N </c><c>   2</c></rc>
    <rc><c>N </c><c>   2</c></rc>
    <rc><c>N </c><c>   2</c></rc>
    <rc><c>N </c><c>   2</c></rc>
    <rc><c>N </c><c>   2</c></rc>
    <rc><c>N </c><c>   2</c></rc>
    <rc><c>N </c><c>   2</c></rc>
    <rc><c>N </c><c>   2</c></rc>
    <rc><c>H </c><c>   3</c></rc>
    <rc><c>H </c><c>   3</c></rc>
    <rc><c>H </c><c>   3</c></rc>
    <rc><c>H </c><c>   3</c></rc>
    <rc><c>H </c><c>   3</c></rc>
    <rc><c>H </c><c>   3</c></rc>
    <rc><c>H </c><c>   3</c></rc>
    <rc><c>H </c><c>   3</c></rc>
    <rc><c>H </c><c>   3</c></rc>
    <rc><c>H </c><c>   3</c></rc>
    <rc><c>H </c><c>   3</c></rc>
    <rc><c>H </c><c>   3</c></rc>
    <rc><c>H </c><c>   3</c></rc>
    <rc><c>H </c><c>   3</c></rc>
    <rc><c>H </c><c>   3</c></rc>
    <rc><c>H </c><c>   3</c></rc>
    <rc><c>H </c><c>   3</c></rc>
    <rc><c>H </c><c>   3</c></rc>
    <rc><c>H </c><c>   3</c></rc>
    <rc><c>H </c><c>   3</c></rc>
    <rc><c>H </c><c>   3</c></rc>
    <rc><c>H </c><c>   3</c></rc>
    <rc><c>H </c><c>   3</c></rc>
    <rc><c>H </c><c>   3</c></rc>
    <rc><c>H </c><c>   3</c></rc>
    <rc><c>H </c><c>   3</c></rc>
    <rc><c>H </c><c>   3</c></rc>
    <rc><c>H </c><c>   3</c></rc>
    <rc><c>H </c><c>   3</c></rc>
    <rc><c>H </c><c>   3</c></rc>
   </set>
  </array>
  <array name="atomtypes" >
   <dimension dim="1">type</dimension>
   <field type="int">atomspertype</field>
   <field type="string">element</field>
   <field>mass</field>
   <field>valence</field>
   <field type="string">pseudopotential</field>
   <set>
    <rc><c>  54</c><c>C </c><c>     12.01100000</c><c>      4.00000000</c><c>  PAW_PBE C 08Apr2002                   </c></rc>
    <rc><c>  12</c><c>N </c><c>     14.00100000</c><c>      5.00000000</c><c>  PAW_PBE N 08Apr2002                   </c></rc>
    <rc><c>  30</c><c>H </c><c>      1.00000000</c><c>      1.00000000</c><c>  PAW_PBE H 15Jun2001                   </c></rc>
   </set>
  </array>
 </atominfo>
 <structure name="initialpos" >
  <crystal>
   <varray name="basis" >
    <v>      29.20465946      -0.00171335       0.00000000 </v>
    <v>     -14.60371546      25.31943412       0.00000000 </v>
    <v>       0.00000000       0.00000000      20.00000000 </v>
   </varray>
   <i name="volume">  14788.40859633 </i>
   <varray name="rec_basis" >
    <v>       0.03424227       0.01975022       0.00000000 </v>
    <v>       0.00000232       0.03949669       0.00000000 </v>
    <v>       0.00000000       0.00000000       0.05000000 </v>
   </varray>
  </crystal>
  <varray name="positions" >
   <v>       0.48406372       0.51445692       0.42979047 </v>
   <v>       0.47164606       0.52768839       0.49200650 </v>
   <v>       0.27953812       0.64191234       0.50012589 </v>
   <v>       0.35743983       0.71975527       0.50032627 </v>
   <v>       0.35749515       0.64192379       0.50010123 </v>
   <v>       0.38664573       0.77821041       0.49978308 </v>
   <v>       0.35919995       0.80628490       0.49916002 </v>
   <v>       0.38671013       0.86124533       0.49725615 </v>
   <v>       0.44214181       0.88920896       0.49603126 </v>
   <v>       0.46961099       0.86125716       0.49740279 </v>
   <v>       0.44216253       0.80630002       0.49927020 </v>
   <v>       0.22101221       0.61261408       0.49958433 </v>
   <v>       0.19282298       0.63993961       0.49914359 </v>
   <v>       0.13780792       0.61238373       0.49751342 </v>
   <v>       0.10987636       0.55700080       0.49629041 </v>
   <v>       0.13793104       0.52962788       0.49747442 </v>
   <v>       0.19294795       0.55713052       0.49910934 </v>
   <v>       0.38674268       0.61265247       0.49947658 </v>
   <v>       0.35933030       0.55716950       0.49889376 </v>
   <v>       0.38686429       0.52969269       0.49723108 </v>
   <v>       0.44229567       0.55708307       0.49615155 </v>
   <v>       0.46974146       0.61246335       0.49747182 </v>
   <v>       0.44226918       0.64000230       0.49908443 </v>
   <v>       0.71651915       0.36004421       0.50002296 </v>
   <v>       0.63861840       0.28217188       0.50009554 </v>
   <v>       0.63857567       0.36003328       0.49984062 </v>
   <v>       0.60933790       0.22368383       0.49961362 </v>
   <v>       0.63674387       0.19557193       0.49920397 </v>
   <v>       0.60923011       0.14060306       0.49744860 </v>
   <v>       0.55380479       0.11263957       0.49606644 </v>
   <v>       0.52634832       0.14060743       0.49730369 </v>
   <v>       0.55380850       0.19557614       0.49907964 </v>
   <v>       0.77505152       0.38935759       0.49943202 </v>
   <v>       0.80328825       0.36207527       0.49890853 </v>
   <v>       0.85831333       0.38968489       0.49725089 </v>
   <v>       0.88622020       0.44507483       0.49613796 </v>
   <v>       0.85810160       0.47238354       0.49734576 </v>
   <v>       0.80308199       0.44484063       0.49895805 </v>
   <v>       0.60934994       0.38932778       0.49914441 </v>
   <v>       0.63681859       0.44481068       0.49870096 </v>
   <v>       0.60937012       0.47237769       0.49707948 </v>
   <v>       0.55394013       0.44507860       0.49583446 </v>
   <v>       0.52643548       0.38968706       0.49691750 </v>
   <v>       0.55382788       0.36206101       0.49858011 </v>
   <v>       0.52446874       0.05393837       0.49190937 </v>
   <v>       0.51147362       0.02825450       0.42973314 </v>
   <v>       0.48413885       0.97359047       0.42971973 </v>
   <v>       0.47149663       0.94790638       0.49190065 </v>
   <v>       0.94499056       0.47454087       0.49210079 </v>
   <v>       0.97072560       0.48726588       0.42994310 </v>
   <v>       0.02543792       0.51463836       0.42999889 </v>
   <v>       0.05112668       0.52763806       0.49218758 </v>
   <v>       0.52464095       0.47454232       0.49184429 </v>
   <v>       0.51139803       0.48708613       0.42971576 </v>
   <v>       0.48542003       0.51473832       0.55031137 </v>
   <v>       0.30431851       0.69500059       0.50024647 </v>
   <v>       0.38583099       0.69501073       0.50028297 </v>
   <v>       0.30437024       0.61362553       0.50001333 </v>
   <v>       0.69176822       0.30694500       0.50014701 </v>
   <v>       0.61026178       0.30693901       0.49993471 </v>
   <v>       0.69170158       0.38835846       0.49989063 </v>
   <v>       0.48503431       0.97453862       0.55027653 </v>
   <v>       0.51136527       0.02730444       0.55026384 </v>
   <v>       0.02444818       0.51453423       0.55054642 </v>
   <v>       0.97165461       0.48812227       0.55047537 </v>
   <v>       0.51177727       0.48829356       0.55023381 </v>
   <v>       0.47237727       0.52566778       0.38357233 </v>
   <v>       0.11611240       0.63381428       0.49726269 </v>
   <v>       0.21478188       0.68295301       0.49994301 </v>
   <v>       0.11633167       0.48652979       0.49722140 </v>
   <v>       0.21498914       0.53612259       0.49988938 </v>
   <v>       0.31627625       0.53614056       0.49960373 </v>
   <v>       0.36537405       0.48659670       0.49690480 </v>
   <v>       0.46333211       0.68302047       0.49989198 </v>
   <v>       0.51287094       0.63389881       0.49728975 </v>
   <v>       0.46321281       0.78430012       0.50019038 </v>
   <v>       0.51273870       0.88287837       0.49708742 </v>
   <v>       0.36520711       0.88286865       0.49683839 </v>
   <v>       0.31614800       0.78429688       0.50003502 </v>
   <v>       0.88001512       0.36826355       0.49694459 </v>
   <v>       0.78135205       0.31905229       0.49966409 </v>
   <v>       0.87965403       0.51547761       0.49711220 </v>
   <v>       0.78100486       0.46581759       0.49972616 </v>
   <v>       0.67987095       0.46576798       0.49953189 </v>
   <v>       0.63094626       0.51547204       0.49685287 </v>
   <v>       0.53270610       0.31903829       0.49935254 </v>
   <v>       0.48330551       0.36828114       0.49660863 </v>
   <v>       0.53272636       0.21754290       0.49993674 </v>
   <v>       0.48321596       0.11898336       0.49697209 </v>
   <v>       0.63073521       0.11898597       0.49721684 </v>
   <v>       0.67978896       0.21756610       0.50013784 </v>
   <v>       0.47262981       0.95079162       0.38343991 </v>
   <v>       0.52276268       0.05108045       0.38348890 </v>
   <v>       0.04830388       0.52600653       0.38375738 </v>
   <v>       0.94792950       0.47577430       0.38364860 </v>
   <v>       0.52254005       0.47546473       0.38340432 </v>
  </varray>
 </structure>
 <calculation>
  <scstep>
   <time name="dav">  525.38  531.64</time>
   <time name="total">  525.64  531.90</time>
   <energy>
    <i name="alphaZ">     29.80988429 </i>
    <i name="ewald">  36318.29823432 </i>
    <i name="hartreedc"> -45665.71809637 </i>
    <i name="XCdc">   1063.82643742 </i>
    <i name="pawpsdc">  28672.81710451 </i>
    <i name="pawaedc"> -28726.87309736 </i>
    <i name="eentropy">     -0.00000000 </i>
    <i name="bandstr">  -3877.64070250 </i>
    <i name="atom">  11495.02586018 </i>
    <i name="e_fr_energy">   -690.45437550 </i>
    <i name="e_wo_entrp">   -690.45437550 </i>
    <i name="e_0_energy">   -690.45437550 </i>
   </energy>
  </scstep>
  <scstep>
   <time name="dav">  551.32  558.14</time>
   <time name="total">  551.32  558.14</time>
   <energy>
    <i name="e_fr_energy">   -690.84238107 </i>
    <i name="e_wo_entrp">   -690.84238107 </i>
    <i name="e_0_energy">   -690.84238107 </i>
   </energy>
  </scstep>
  <scstep>
   <time name="dav">  656.94  665.07</time>
   <time name="total">  656.94  665.07</time>
   <energy>
    <i name="e_fr_energy">   -690.85398949 </i>
    <i name="e_wo_entrp">   -690.85398949 </i>
    <i name="e_0_energy">   -690.85398949 </i>
   </energy>
  </scstep>
  <scstep>
   <time name="dav">  539.77  546.38</time>
   <time name="total">  539.77  546.38</time>
   <energy>
    <i name="e_fr_energy">   -690.85412814 </i>
    <i name="e_wo_entrp">   -690.85412814 </i>
    <i name="e_0_energy">   -690.85412814 </i>
   </energy>
  </scstep>
  <scstep>
   <time name="dav">  545.68  552.49</time>
   <time name="total">  545.68  552.49</time>
   <energy>
    <i name="alphaZ">     29.80988429 </i>
    <i name="ewald">  36318.29823432 </i>
    <i name="hartreedc"> -45665.71809637 </i>
    <i name="XCdc">   1063.82643742 </i>
    <i name="pawpsdc">  28672.81710451 </i>
    <i name="pawaedc"> -28726.87309736 </i>
    <i name="eentropy">     -0.00000000 </i>
    <i name="bandstr">  -3878.04046232 </i>
    <i name="atom">  11495.02586018 </i>
    <i name="e_fr_energy">   -690.85413532 </i>
    <i name="e_wo_entrp">   -690.85413532 </i>
    <i name="e_0_energy">   -690.85413532 </i>
   </energy>
  </scstep>
  <structure>
   <crystal>
    <varray name="basis" >
     <v>      29.20465946      -0.00171335       0.00000000 </v>
     <v>     -14.60371546      25.31943412       0.00000000 </v>
     <v>       0.00000000       0.00000000      20.00000000 </v>
    </varray>
    <i name="volume">  14788.40859633 </i>
    <varray name="rec_basis" >
     <v>       0.03424227       0.01975022       0.00000000 </v>
     <v>       0.00000232       0.03949669       0.00000000 </v>
     <v>       0.00000000       0.00000000       0.05000000 </v>
    </varray>
   </crystal>
   <varray name="positions" >
    <v>       0.48406372       0.51445692       0.42979047 </v>
    <v>       0.47164606       0.52768839       0.49200650 </v>
    <v>       0.27953812       0.64191234       0.50012589 </v>
    <v>       0.35743983       0.71975527       0.50032627 </v>
    <v>       0.35749515       0.64192379       0.50010123 </v>
    <v>       0.38664573       0.77821041       0.49978308 </v>
    <v>       0.35919995       0.80628490       0.49916002 </v>
    <v>       0.38671013       0.86124533       0.49725615 </v>
    <v>       0.44214181       0.88920896       0.49603126 </v>
    <v>       0.46961099       0.86125716       0.49740279 </v>
    <v>       0.44216253       0.80630002       0.49927020 </v>
    <v>       0.22101221       0.61261408       0.49958433 </v>
    <v>       0.19282298       0.63993961       0.49914359 </v>
    <v>       0.13780792       0.61238373       0.49751342 </v>
    <v>       0.10987636       0.55700080       0.49629041 </v>
    <v>       0.13793104       0.52962788       0.49747442 </v>
    <v>       0.19294795       0.55713052       0.49910934 </v>
    <v>       0.38674268       0.61265247       0.49947658 </v>
    <v>       0.35933030       0.55716950       0.49889376 </v>
    <v>       0.38686429       0.52969269       0.49723108 </v>
    <v>       0.44229567       0.55708307       0.49615155 </v>
    <v>       0.46974146       0.61246335       0.49747182 </v>
    <v>       0.44226918       0.64000230       0.49908443 </v>
    <v>       0.71651915       0.36004421       0.50002296 </v>
    <v>       0.63861840       0.28217188       0.50009554 </v>
    <v>       0.63857567       0.36003328       0.49984062 </v>
    <v>       0.60933790       0.22368383       0.49961362 </v>
    <v>       0.63674387       0.19557193       0.49920397 </v>
    <v>       0.60923011       0.14060306       0.49744860 </v>
    <v>       0.55380479       0.11263957       0.49606644 </v>
    <v>       0.52634832       0.14060743       0.49730369 </v>
    <v>       0.55380850       0.19557614       0.49907964 </v>
    <v>       0.77505152       0.38935759       0.49943202 </v>
    <v>       0.80328825       0.36207527       0.49890853 </v>
    <v>       0.85831333       0.38968489       0.49725089 </v>
    <v>       0.88622020       0.44507483       0.49613796 </v>
    <v>       0.85810160       0.47238354       0.49734576 </v>
    <v>       0.80308199       0.44484063       0.49895805 </v>
    <v>       0.60934994       0.38932778       0.49914441 </v>
    <v>       0.63681859       0.44481068       0.49870096 </v>
    <v>       0.60937012       0.47237769       0.49707948 </v>
    <v>       0.55394013       0.44507860       0.49583446 </v>
    <v>       0.52643548       0.38968706       0.49691750 </v>
    <v>       0.55382788       0.36206101       0.49858011 </v>
    <v>       0.52446874       0.05393837       0.49190937 </v>
    <v>       0.51147362       0.02825450       0.42973314 </v>
    <v>       0.48413885       0.97359047       0.42971973 </v>
    <v>       0.47149663       0.94790638       0.49190065 </v>
    <v>       0.94499056       0.47454087       0.49210079 </v>
    <v>       0.97072560       0.48726588       0.42994310 </v>
    <v>       0.02543792       0.51463836       0.42999889 </v>
    <v>       0.05112668       0.52763806       0.49218758 </v>
    <v>       0.52464095       0.47454232       0.49184429 </v>
    <v>       0.51139803       0.48708613       0.42971576 </v>
    <v>       0.48542003       0.51473832       0.55031137 </v>
    <v>       0.30431851       0.69500059       0.50024647 </v>
    <v>       0.38583099       0.69501073       0.50028297 </v>
    <v>       0.30437024       0.61362553       0.50001333 </v>
    <v>       0.69176822       0.30694500       0.50014701 </v>
    <v>       0.61026178       0.30693901       0.49993471 </v>
    <v>       0.69170158       0.38835846       0.49989063 </v>
    <v>       0.48503431       0.97453862       0.55027653 </v>
    <v>       0.51136527       0.02730444       0.55026384 </v>
    <v>       0.02444818       0.51453423       0.55054642 </v>
    <v>       0.97165461       0.48812227       0.55047537 </v>
    <v>       0.51177727       0.48829356       0.55023381 </v>
    <v>       0.47237727       0.52566778       0.38357233 </v>
    <v>       0.11611240       0.63381428       0.49726269 </v>
    <v>       0.21478188       0.68295301       0.49994301 </v>
    <v>       0.11633167       0.48652979       0.49722140 </v>
    <v>       0.21498914       0.53612259       0.49988938 </v>
    <v>       0.31627625       0.53614056       0.49960373 </v>
    <v>       0.36537405       0.48659670       0.49690480 </v>
    <v>       0.46333211       0.68302047       0.49989198 </v>
    <v>       0.51287094       0.63389881       0.49728975 </v>
    <v>       0.46321281       0.78430012       0.50019038 </v>
    <v>       0.51273870       0.88287837       0.49708742 </v>
    <v>       0.36520711       0.88286865       0.49683839 </v>
    <v>       0.31614800       0.78429688       0.50003502 </v>
    <v>       0.88001512       0.36826355       0.49694459 </v>
    <v>       0.78135205       0.31905229       0.49966409 </v>
    <v>       0.87965403       0.51547761       0.49711220 </v>
    <v>       0.78100486       0.46581759       0.49972616 </v>
    <v>       0.67987095       0.46576798       0.49953189 </v>
    <v>       0.63094626       0.51547204       0.49685287 </v>
    <v>       0.53270610       0.31903829       0.49935254 </v>
    <v>       0.48330551       0.36828114       0.49660863 </v>
    <v>       0.53272636       0.21754290       0.49993674 </v>
    <v>       0.48321596       0.11898336       0.49697209 </v>
    <v>       0.63073521       0.11898597       0.49721684 </v>
    <v>       0.67978896       0.21756610       0.50013784 </v>
    <v>       0.47262981       0.95079162       0.38343991 </v>
    <v>       0.52276268       0.05108045       0.38348890 </v>
    <v>       0.04830388       0.52600653       0.38375738 </v>
    <v>       0.94792950       0.47577430       0.38364860 </v>
    <v>       0.52254005       0.47546473       0.38340432 </v>
   </varray>
  </structure>
  <varray name="forces" >
   <v>      -0.00264324       0.00223692       0.00265819 </v>
   <v>       0.00172479      -0.00210387      -0.00257608 </v>
   <v>       0.00734360      -0.00403924       0.00462997 </v>
   <v>       0.00641053       0.00041973      -0.00165873 </v>
   <v>       0.00096496       0.00019478       0.00409186 </v>
   <v>      -0.00160359       0.00079782      -0.00300019 </v>
   <v>       0.00353746       0.00508397      -0.00139301 </v>
   <v>       0.00461238       0.00104494       0.00072128 </v>
   <v>       0.00199789       0.00242456       0.00052404 </v>
   <v>      -0.00176652       0.00227307       0.00177445 </v>
   <v>       0.00242195       0.00207766      -0.00101570 </v>
   <v>       0.00039811       0.00047262       0.00050457 </v>
   <v>      -0.00418307      -0.00071082       0.00007715 </v>
   <v>       0.00060557      -0.00235790      -0.00109153 </v>
   <v>      -0.00043409       0.00277019      -0.00200078 </v>
   <v>      -0.00571382       0.00222585      -0.00208333 </v>
   <v>      -0.00296809      -0.00013248      -0.00073579 </v>
   <v>       0.00060497      -0.00149881       0.00125834 </v>
   <v>       0.00483032       0.00180227       0.00002126 </v>
   <v>      -0.00123971       0.00356040      -0.00216006 </v>
   <v>       0.00133055      -0.00132269       0.00001776 </v>
   <v>      -0.00106708      -0.00396214      -0.00166273 </v>
   <v>       0.00262250      -0.00261526       0.00020155 </v>
   <v>       0.00016715      -0.00221733      -0.00110428 </v>
   <v>       0.00373194      -0.00216816       0.00448303 </v>
   <v>       0.00015545      -0.00401265       0.00363991 </v>
   <v>       0.00225862       0.00290955       0.00169439 </v>
   <v>      -0.00308429      -0.00348460      -0.00009929 </v>
   <v>      -0.00468428       0.00477697      -0.00193008 </v>
   <v>      -0.00110898      -0.00025525      -0.00010509 </v>
   <v>       0.00364304      -0.00077495      -0.00225143 </v>
   <v>      -0.00018721       0.00150417      -0.00012279 </v>
   <v>       0.00229493      -0.00053259       0.00129225 </v>
   <v>       0.00216717       0.00387376       0.00034677 </v>
   <v>      -0.00388015       0.00073463      -0.00012056 </v>
   <v>      -0.00230573      -0.00121477      -0.00041877 </v>
   <v>       0.00300985      -0.00071472      -0.00002269 </v>
   <v>       0.00206136       0.00149062       0.00118217 </v>
   <v>      -0.00559492       0.00251238       0.00213627 </v>
   <v>      -0.00539111       0.00283003       0.00104606 </v>
   <v>       0.00041249      -0.00249863      -0.00124723 </v>
   <v>       0.00083474      -0.00282659      -0.00241466 </v>
   <v>      -0.00009802       0.00130944      -0.00150372 </v>
   <v>      -0.00395295      -0.00049757       0.00100515 </v>
   <v>       0.00076270       0.00079626       0.00172738 </v>
   <v>      -0.00387958       0.00119617       0.00084140 </v>
   <v>       0.00168598       0.00179089       0.00117105 </v>
   <v>      -0.00049287      -0.00106538       0.00177632 </v>
   <v>       0.00183485       0.00002647       0.00456689 </v>
   <v>       0.00121482      -0.00044597      -0.00030517 </v>
   <v>       0.00334209       0.00108128      -0.00199365 </v>
   <v>       0.00034319       0.00096767       0.00232149 </v>
   <v>      -0.00374358       0.00053984      -0.00404361 </v>
   <v>       0.00006695      -0.00289403      -0.00414758 </v>
   <v>       0.00618353      -0.00327811       0.00162056 </v>
   <v>       0.00011012       0.00054019      -0.00362744 </v>
   <v>      -0.00204228       0.00824067      -0.00183011 </v>
   <v>       0.00608386      -0.00229594       0.00116490 </v>
   <v>      -0.00583679       0.00088353       0.00151877 </v>
   <v>      -0.00206221      -0.00229481       0.00151415 </v>
   <v>      -0.00208846       0.00011055      -0.00215550 </v>
   <v>      -0.00279197      -0.00239139       0.00017077 </v>
   <v>       0.00066328      -0.00150503       0.00244041 </v>
   <v>       0.00166128      -0.00070473      -0.00380376 </v>
   <v>      -0.00441509      -0.00387843       0.00011373 </v>
   <v>      -0.00764786       0.00066093       0.00452728 </v>
   <v>       0.00401019      -0.00502668      -0.00013529 </v>
   <v>       0.00026599       0.00023298      -0.00019416 </v>
   <v>      -0.00236560       0.00277430       0.00158649 </v>
   <v>       0.00036165       0.00259086      -0.00132748 </v>
   <v>      -0.00004749       0.00037978       0.00127267 </v>
   <v>      -0.00078769       0.00160376       0.00234161 </v>
   <v>      -0.00188207       0.00085371      -0.00227748 </v>
   <v>      -0.00090619      -0.00139146       0.00380773 </v>
   <v>      -0.00040316       0.00191166      -0.00032709 </v>
   <v>      -0.00194249       0.00391830      -0.00030318 </v>
   <v>      -0.00072082       0.00112640       0.00265459 </v>
   <v>      -0.00052989      -0.00067678       0.00149633 </v>
   <v>       0.00157729       0.00010632      -0.00173298 </v>
   <v>       0.00033957      -0.00051973      -0.00024919 </v>
   <v>       0.00200293       0.00214649       0.00149721 </v>
   <v>      -0.00069309      -0.00235085      -0.00007994 </v>
   <v>       0.00341315      -0.00291833       0.00235305 </v>
   <v>      -0.00144262      -0.00068049       0.00117845 </v>
   <v>      -0.00225650      -0.00250981       0.00111015 </v>
   <v>      -0.00206903      -0.00006312      -0.00031097 </v>
   <v>       0.00071622       0.00031476      -0.00088492 </v>
   <v>       0.00140219       0.00040047      -0.00188457 </v>
   <v>       0.00306550       0.00308188      -0.00032211 </v>
   <v>      -0.00103193      -0.00089529       0.00029502 </v>
   <v>       0.00449416      -0.00032614      -0.00126978 </v>
   <v>      -0.00253905      -0.00051565       0.00097896 </v>
   <v>      -0.00055806       0.00132781      -0.00769102 </v>
   <v>      -0.00032220      -0.00497508      -0.00130601 </v>
   <v>       0.00039213      -0.00107724      -0.00131535 </v>
   <v>       0.00126951      -0.00430876      -0.00511692 </v>
  </varray>
  <varray name="stress" >
   <v>      -0.00738003       0.00167085      -0.00394437 </v>
   <v>       0.00167085      -0.00468312       0.00051267 </v>
   <v>      -0.00394437       0.00051267      -0.12460586 </v>
  </varray>
  <energy>
   <i name="e_fr_energy">   -692.62530173 </i>
   <i name="e_wo_entrp">   -692.62530173 </i>
   <i name="e_0_energy">     -0.00000000 </i>
  </energy>
  <time name="totalsc"> 3419.63 3463.47</time>
  <eigenvalues>
   <array>
    <dimension dim="1">band</dimension>
    <dimension dim="2">kpoint</dimension>
    <dimension dim="3">spin</dimension>
    <field>eigene</field>
    <field>occ</field>
    <set>
     <set comment="spin 1">
      <set comment="kpoint 1">
       <r>  -25.3461    1.0000 </r>
       <r>  -25.3430    1.0000 </r>
       <r>  -25.2788    1.0000 </r>
       <r>  -25.2764    1.0000 </r>
       <r>  -25.2757    1.0000 </r>
       <r>  -22.4308    1.0000 </r>
       <r>  -22.4302    1.0000 </r>
       <r>  -22.4270    1.0000 </r>
       <r>  -22.4250    1.0000 </r>
       <r>  -21.6649    1.0000 </r>
       <r>  -21.6111    1.0000 </r>
       <r>  -21.6108    1.0000 </r>
       <r>  -21.4304    1.0000 </r>
       <r>  -21.3644    1.0000 </r>
       <r>  -21.3637    1.0000 </r>
       <r>  -20.5813    1.0000 </r>
       <r>  -20.5684    1.0000 </r>
       <r>  -20.5676    1.0000 </r>
       <r>  -20.4299    1.0000 </r>
       <r>  -20.4281    1.0000 </r>
       <r>  -20.4272    1.0000 </r>
       <r>  -19.1252    1.0000 </r>
       <r>  -19.1239    1.0000 </r>
       <r>  -18.9398    1.0000 </r>
       <r>  -18.7609    1.0000 </r>
       <r>  -18.7588    1.0000 </r>
       <r>  -18.4935    1.0000 </r>
       <r>  -18.4910    1.0000 </r>
       <r>  -18.4728    1.0000 </r>
       <r>  -18.4723    1.0000 </r>
       <r>  -18.4448    1.0000 </r>
       <r>  -18.4400    1.0000 </r>
       <r>  -18.4392    1.0000 </r>
       <r>  -17.1765    1.0000 </r>
       <r>  -17.1750    1.0000 </r>
       <r>  -16.7935    1.0000 </r>
       <r>  -16.7914    1.0000 </r>
       <r>  -16.5054    1.0000 </r>
       <r>  -16.3968    1.0000 </r>
       <r>  -16.1153    1.0000 </r>
       <r>  -16.1149    1.0000 </r>
       <r>  -15.6883    1.0000 </r>
       <r>  -15.6864    1.0000 </r>
       <r>  -15.2132    1.0000 </r>
       <r>  -15.2073    1.0000 </r>
       <r>  -15.1350    1.0000 </r>
       <r>  -14.9294    1.0000 </r>
       <r>  -14.9290    1.0000 </r>
       <r>  -14.8776    1.0000 </r>
       <r>  -14.8773    1.0000 </r>
       <r>  -14.7535    1.0000 </r>
       <r>  -14.2337    1.0000 </r>
       <r>  -14.2334    1.0000 </r>
       <r>  -14.1826    1.0000 </r>
       <r>  -14.1819    1.0000 </r>
       <r>  -13.3050    1.0000 </r>
       <r>  -13.2970    1.0000 </r>
       <r>  -13.2864    1.0000 </r>
       <r>  -13.2782    1.0000 </r>
       <r>  -13.0565    1.0000 </r>
       <r>  -13.0560    1.0000 </r>
       <r>  -12.7452    1.0000 </r>
       <r>  -12.7419    1.0000 </r>
       <r>  -12.7415    1.0000 </r>
       <r>  -12.7287    1.0000 </r>
       <r>  -12.6561    1.0000 </r>
       <r>  -12.6559    1.0000 </r>
       <r>  -11.9861    1.0000 </r>
       <r>  -11.7027    1.0000 </r>
       <r>  -11.7020    1.0000 </r>
       <r>  -11.4587    1.0000 </r>
       <r>  -11.4585    1.0000 </r>
       <r>  -11.2065    1.0000 </r>
       <r>  -11.2042    1.0000 </r>
       <r>  -11.0984    1.0000 </r>
       <r>  -11.0900    1.0000 </r>
       <r>  -11.0899    1.0000 </r>
       <r>  -11.0782    1.0000 </r>
       <r>  -11.0775    1.0000 </r>
       <r>  -10.8871    1.0000 </r>
       <r>  -10.8754    1.0000 </r>
       <r>  -10.7826    1.0000 </r>
       <r>  -10.7606    1.0000 </r>
       <r>  -10.7604    1.0000 </r>
       <r>  -10.5794    1.0000 </r>
       <r>  -10.5787    1.0000 </r>
       <r>  -10.4121    1.0000 </r>
       <r>  -10.3956    1.0000 </r>
       <r>  -10.2495    1.0000 </r>
       <r>  -10.2493    1.0000 </r>
       <r>  -10.2069    1.0000 </r>
       <r>  -10.2019    1.0000 </r>
       <r>  -10.2017    1.0000 </r>
       <r>  -10.1731    1.0000 </r>
       <r>  -10.1727    1.0000 </r>
       <r>  -10.1302    1.0000 </r>
       <r>  -10.0176    1.0000 </r>
       <r>   -9.9577    1.0000 </r>
       <r>   -9.9569    1.0000 </r>
       <r>   -9.8654    1.0000 </r>
       <r>   -9.8651    1.0000 </r>
       <r>   -9.4553    1.0000 </r>
       <r>   -9.4550    1.0000 </r>
       <r>   -9.4094    1.0000 </r>
       <r>   -9.4091    1.0000 </r>
       <r>   -9.0679    1.0000 </r>
       <r>   -8.9754    1.0000 </r>
       <r>   -8.8624    1.0000 </r>
       <r>   -8.8466    1.0000 </r>
       <r>   -8.7020    1.0000 </r>
       <r>   -8.7011    1.0000 </r>
       <r>   -8.6003    1.0000 </r>
       <r>   -8.5990    1.0000 </r>
       <r>   -8.5282    1.0000 </r>
       <r>   -8.5268    1.0000 </r>
       <r>   -8.3375    1.0000 </r>
       <r>   -8.3371    1.0000 </r>
       <r>   -8.2406    1.0000 </r>
       <r>   -8.2402    1.0000 </r>
       <r>   -8.2330    1.0000 </r>
       <r>   -8.1358    1.0000 </r>
       <r>   -8.1358    1.0000 </r>
       <r>   -8.1326    1.0000 </r>
       <r>   -8.0789    1.0000 </r>
       <r>   -8.0787    1.0000 </r>
       <r>   -7.6346    1.0000 </r>
       <r>   -7.6333    1.0000 </r>
       <r>   -7.6319    1.0000 </r>
       <r>   -7.1623    1.0000 </r>
       <r>   -7.1364    1.0000 </r>
       <r>   -7.1348    1.0000 </r>
       <r>   -6.9620    1.0000 </r>
       <r>   -6.9610    1.0000 </r>
       <r>   -6.9401    1.0000 </r>
       <r>   -6.4060    1.0000 </r>
       <r>   -6.4054    1.0000 </r>
       <r>   -6.4034    1.0000 </r>
       <r>   -6.4032    1.0000 </r>
       <r>   -6.3863    1.0000 </r>
       <r>   -6.3730    1.0000 </r>
       <r>   -6.3478    1.0000 </r>
       <r>   -6.1939    1.0000 </r>
       <r>   -6.1780    1.0000 </r>
       <r>   -6.1762    1.0000 </r>
       <r>   -6.0687    1.0000 </r>
       <r>   -6.0667    1.0000 </r>
       <r>   -5.9169    1.0000 </r>
       <r>   -5.9146    1.0000 </r>
       <r>   -5.9075    1.0000 </r>
       <r>   -5.9047    1.0000 </r>
       <r>   -5.0888    1.0000 </r>
       <r>   -5.0870    1.0000 </r>
       <r>   -5.0856    1.0000 </r>
       <r>   -2.7559    0.0000 </r>
       <r>   -2.7548    0.0000 </r>
       <r>   -2.7160    0.0000 </r>
       <r>   -2.7147    0.0000 </r>
       <r>   -2.4343    0.0000 </r>
       <r>   -2.4244    0.0000 </r>
       <r>   -2.4242    0.0000 </r>
       <r>   -1.7755    0.0000 </r>
       <r>   -1.7740    0.0000 </r>
       <r>   -1.7710    0.0000 </r>
       <r>   -1.6444    0.0000 </r>
       <r>   -1.5527    0.0000 </r>
       <r>   -1.2232    0.0000 </r>
       <r>   -1.2223    0.0000 </r>
       <r>   -1.2136    0.0000 </r>
       <r>   -1.1151    0.0000 </r>
       <r>   -1.1143    0.0000 </r>
       <r>   -1.1043    0.0000 </r>
       <r>   -0.4352    0.0000 </r>
       <r>   -0.3540    0.0000 </r>
       <r>   -0.3528    0.0000 </r>
       <r>   -0.2591    0.0000 </r>
       <r>   -0.2583    0.0000 </r>
       <r>   -0.2427    0.0000 </r>
       <r>   -0.1488    0.0000 </r>
       <r>   -0.1480    0.0000 </r>
       <r>   -0.0352    0.0000 </r>
       <r>   -0.0344    0.0000 </r>
       <r>    0.0484    0.0000 </r>
       <r>    0.1719    0.0000 </r>
       <r>    0.1723    0.0000 </r>
       <r>    0.2424    0.0000 </r>
       <r>    0.3239    0.0000 </r>
       <r>    0.3541    0.0000 </r>
       <r>    0.3550    0.0000 </r>
       <r>    0.3931    0.0000 </r>
       <r>    0.3944    0.0000 </r>
       <r>    0.4161    0.0000 </r>
       <r>    0.4524    0.0000 </r>
       <r>    0.5510    0.0000 </r>
       <r>    0.5567    0.0000 </r>
       <r>    0.6584    0.0000 </r>
       <r>    0.6590    0.0000 </r>
       <r>    0.7214    0.0000 </r>
       <r>    0.7406    0.0000 </r>
       <r>    0.7448    0.0000 </r>
       <r>    0.7575    0.0000 </r>
       <r>    0.7613    0.0000 </r>
       <r>    0.8189    0.0000 </r>
       <r>    0.8364    0.0000 </r>
       <r>    0.8473    0.0000 </r>
       <r>    0.8520    0.0000 </r>
       <r>    0.8765    0.0000 </r>
       <r>    0.9189    0.0000 </r>
       <r>    0.9191    0.0000 </r>
      </set>
      <set comment="kpoint 2">
       <r>  -25.3461    1.0000 </r>
       <r>  -25.3430    1.0000 </r>
       <r>  -25.2788    1.0000 </r>
       <r>  -25.2764    1.0000 </r>
       <r>  -25.2757    1.0000 </r>
       <r>  -22.4308    1.0000 </r>
       <r>  -22.4302    1.0000 </r>
       <r>  -22.4270    1.0000 </r>
       <r>  -22.4250    1.0000 </r>
       <r>  -21.6649    1.0000 </r>
       <r>  -21.6111    1.0000 </r>
       <r>  -21.6109    1.0000 </r>
       <r>  -21.4303    1.0000 </r>
       <r>  -21.3645    1.0000 </r>
       <r>  -21.3637    1.0000 </r>
       <r>  -20.5813    1.0000 </r>
       <r>  -20.5684    1.0000 </r>
       <r>  -20.5676    1.0000 </r>
       <r>  -20.4299    1.0000 </r>
       <r>  -20.4281    1.0000 </r>
       <r>  -20.4272    1.0000 </r>
       <r>  -19.1250    1.0000 </r>
       <r>  -19.1238    1.0000 </r>
       <r>  -18.9405    1.0000 </r>
       <r>  -18.7604    1.0000 </r>
       <r>  -18.7585    1.0000 </r>
       <r>  -18.4935    1.0000 </r>
       <r>  -18.4910    1.0000 </r>
       <r>  -18.4731    1.0000 </r>
       <r>  -18.4724    1.0000 </r>
       <r>  -18.4448    1.0000 </r>
       <r>  -18.4400    1.0000 </r>
       <r>  -18.4392    1.0000 </r>
       <r>  -17.1762    1.0000 </r>
       <r>  -17.1748    1.0000 </r>
       <r>  -16.7943    1.0000 </r>
       <r>  -16.7916    1.0000 </r>
       <r>  -16.5048    1.0000 </r>
       <r>  -16.3969    1.0000 </r>
       <r>  -16.1149    1.0000 </r>
       <r>  -16.1147    1.0000 </r>
       <r>  -15.6891    1.0000 </r>
       <r>  -15.6865    1.0000 </r>
       <r>  -15.2132    1.0000 </r>
       <r>  -15.2073    1.0000 </r>
       <r>  -15.1343    1.0000 </r>
       <r>  -14.9293    1.0000 </r>
       <r>  -14.9291    1.0000 </r>
       <r>  -14.8776    1.0000 </r>
       <r>  -14.8773    1.0000 </r>
       <r>  -14.7538    1.0000 </r>
       <r>  -14.2336    1.0000 </r>
       <r>  -14.2334    1.0000 </r>
       <r>  -14.1826    1.0000 </r>
       <r>  -14.1819    1.0000 </r>
       <r>  -13.3049    1.0000 </r>
       <r>  -13.2969    1.0000 </r>
       <r>  -13.2864    1.0000 </r>
       <r>  -13.2783    1.0000 </r>
       <r>  -13.0563    1.0000 </r>
       <r>  -13.0560    1.0000 </r>
       <r>  -12.7459    1.0000 </r>
       <r>  -12.7419    1.0000 </r>
       <r>  -12.7415    1.0000 </r>
       <r>  -12.7314    1.0000 </r>
       <r>  -12.6560    1.0000 </r>
       <r>  -12.6524    1.0000 </r>
       <r>  -11.9877    1.0000 </r>
       <r>  -11.7022    1.0000 </r>
       <r>  -11.7013    1.0000 </r>
       <r>  -11.4586    1.0000 </r>
       <r>  -11.4582    1.0000 </r>
       <r>  -11.2065    1.0000 </r>
       <r>  -11.2042    1.0000 </r>
       <r>  -11.1008    1.0000 </r>
       <r>  -11.0925    1.0000 </r>
       <r>  -11.0915    1.0000 </r>
       <r>  -11.0755    1.0000 </r>
       <r>  -11.0742    1.0000 </r>
       <r>  -10.8869    1.0000 </r>
       <r>  -10.8756    1.0000 </r>
       <r>  -10.7833    1.0000 </r>
       <r>  -10.7604    1.0000 </r>
       <r>  -10.7597    1.0000 </r>
       <r>  -10.5796    1.0000 </r>
       <r>  -10.5788    1.0000 </r>
       <r>  -10.4121    1.0000 </r>
       <r>  -10.3957    1.0000 </r>
       <r>  -10.2495    1.0000 </r>
       <r>  -10.2493    1.0000 </r>
       <r>  -10.2073    1.0000 </r>
       <r>  -10.2019    1.0000 </r>
       <r>  -10.2015    1.0000 </r>
       <r>  -10.1731    1.0000 </r>
       <r>  -10.1724    1.0000 </r>
       <r>  -10.1300    1.0000 </r>
       <r>  -10.0177    1.0000 </r>
       <r>   -9.9578    1.0000 </r>
       <r>   -9.9569    1.0000 </r>
       <r>   -9.8655    1.0000 </r>
       <r>   -9.8650    1.0000 </r>
       <r>   -9.4552    1.0000 </r>
       <r>   -9.4550    1.0000 </r>
       <r>   -9.4094    1.0000 </r>
       <r>   -9.4091    1.0000 </r>
       <r>   -9.0677    1.0000 </r>
       <r>   -8.9753    1.0000 </r>
       <r>   -8.8629    1.0000 </r>
       <r>   -8.8467    1.0000 </r>
       <r>   -8.7015    1.0000 </r>
       <r>   -8.7011    1.0000 </r>
       <r>   -8.6003    1.0000 </r>
       <r>   -8.5990    1.0000 </r>
       <r>   -8.5284    1.0000 </r>
       <r>   -8.5269    1.0000 </r>
       <r>   -8.3374    1.0000 </r>
       <r>   -8.3370    1.0000 </r>
       <r>   -8.2421    1.0000 </r>
       <r>   -8.2403    1.0000 </r>
       <r>   -8.2314    1.0000 </r>
       <r>   -8.1358    1.0000 </r>
       <r>   -8.1357    1.0000 </r>
       <r>   -8.1327    1.0000 </r>
       <r>   -8.0789    1.0000 </r>
       <r>   -8.0788    1.0000 </r>
       <r>   -7.6346    1.0000 </r>
       <r>   -7.6333    1.0000 </r>
       <r>   -7.6319    1.0000 </r>
       <r>   -7.1623    1.0000 </r>
       <r>   -7.1365    1.0000 </r>
       <r>   -7.1348    1.0000 </r>
       <r>   -6.9620    1.0000 </r>
       <r>   -6.9610    1.0000 </r>
       <r>   -6.9401    1.0000 </r>
       <r>   -6.4061    1.0000 </r>
       <r>   -6.4056    1.0000 </r>
       <r>   -6.4032    1.0000 </r>
       <r>   -6.4031    1.0000 </r>
       <r>   -6.3863    1.0000 </r>
       <r>   -6.3730    1.0000 </r>
       <r>   -6.3476    1.0000 </r>
       <r>   -6.1954    1.0000 </r>
       <r>   -6.1771    1.0000 </r>
       <r>   -6.1756    1.0000 </r>
       <r>   -6.0688    1.0000 </r>
       <r>   -6.0667    1.0000 </r>
       <r>   -5.9169    1.0000 </r>
       <r>   -5.9146    1.0000 </r>
       <r>   -5.9075    1.0000 </r>
       <r>   -5.9047    1.0000 </r>
       <r>   -5.0888    1.0000 </r>
       <r>   -5.0870    1.0000 </r>
       <r>   -5.0856    1.0000 </r>
       <r>   -2.7559    0.0000 </r>
       <r>   -2.7548    0.0000 </r>
       <r>   -2.7160    0.0000 </r>
       <r>   -2.7147    0.0000 </r>
       <r>   -2.4343    0.0000 </r>
       <r>   -2.4244    0.0000 </r>
       <r>   -2.4242    0.0000 </r>
       <r>   -1.7755    0.0000 </r>
       <r>   -1.7740    0.0000 </r>
       <r>   -1.7710    0.0000 </r>
       <r>   -1.6442    0.0000 </r>
       <r>   -1.5529    0.0000 </r>
       <r>   -1.2232    0.0000 </r>
       <r>   -1.2223    0.0000 </r>
       <r>   -1.2137    0.0000 </r>
       <r>   -1.1151    0.0000 </r>
       <r>   -1.1143    0.0000 </r>
       <r>   -1.1044    0.0000 </r>
       <r>   -0.4352    0.0000 </r>
       <r>   -0.3543    0.0000 </r>
       <r>   -0.3529    0.0000 </r>
       <r>   -0.2590    0.0000 </r>
       <r>   -0.2582    0.0000 </r>
       <r>   -0.2425    0.0000 </r>
       <r>   -0.1488    0.0000 </r>
       <r>   -0.1480    0.0000 </r>
       <r>   -0.0350    0.0000 </r>
       <r>   -0.0343    0.0000 </r>
       <r>    0.0483    0.0000 </r>
       <r>    0.1714    0.0000 </r>
       <r>    0.1718    0.0000 </r>
       <r>    0.2421    0.0000 </r>
       <r>    0.3238    0.0000 </r>
       <r>    0.3535    0.0000 </r>
       <r>    0.3549    0.0000 </r>
       <r>    0.3918    0.0000 </r>
       <r>    0.3957    0.0000 </r>
       <r>    0.4186    0.0000 </r>
       <r>    0.4526    0.0000 </r>
       <r>    0.5513    0.0000 </r>
       <r>    0.5567    0.0000 </r>
       <r>    0.6582    0.0000 </r>
       <r>    0.6588    0.0000 </r>
       <r>    0.7208    0.0000 </r>
       <r>    0.7398    0.0000 </r>
       <r>    0.7435    0.0000 </r>
       <r>    0.7585    0.0000 </r>
       <r>    0.7628    0.0000 </r>
       <r>    0.8182    0.0000 </r>
       <r>    0.8370    0.0000 </r>
       <r>    0.8488    0.0000 </r>
       <r>    0.8520    0.0000 </r>
       <r>    0.8765    0.0000 </r>
       <r>    0.9119    0.0000 </r>
       <r>    0.9182    0.0000 </r>
      </set>
      <set comment="kpoint 3">
       <r>  -25.3461    1.0000 </r>
       <r>  -25.3430    1.0000 </r>
       <r>  -25.2788    1.0000 </r>
       <r>  -25.2764    1.0000 </r>
       <r>  -25.2757    1.0000 </r>
       <r>  -22.4308    1.0000 </r>
       <r>  -22.4302    1.0000 </r>
       <r>  -22.4271    1.0000 </r>
       <r>  -22.4250    1.0000 </r>
       <r>  -21.6647    1.0000 </r>
       <r>  -21.6112    1.0000 </r>
       <r>  -21.6111    1.0000 </r>
       <r>  -21.4299    1.0000 </r>
       <r>  -21.3648    1.0000 </r>
       <r>  -21.3638    1.0000 </r>
       <r>  -20.5812    1.0000 </r>
       <r>  -20.5684    1.0000 </r>
       <r>  -20.5676    1.0000 </r>
       <r>  -20.4299    1.0000 </r>
       <r>  -20.4281    1.0000 </r>
       <r>  -20.4272    1.0000 </r>
       <r>  -19.1247    1.0000 </r>
       <r>  -19.1237    1.0000 </r>
       <r>  -18.9424    1.0000 </r>
       <r>  -18.7598    1.0000 </r>
       <r>  -18.7568    1.0000 </r>
       <r>  -18.4935    1.0000 </r>
       <r>  -18.4910    1.0000 </r>
       <r>  -18.4743    1.0000 </r>
       <r>  -18.4725    1.0000 </r>
       <r>  -18.4446    1.0000 </r>
       <r>  -18.4400    1.0000 </r>
       <r>  -18.4392    1.0000 </r>
       <r>  -17.1757    1.0000 </r>
       <r>  -17.1740    1.0000 </r>
       <r>  -16.7971    1.0000 </r>
       <r>  -16.7919    1.0000 </r>
       <r>  -16.5030    1.0000 </r>
       <r>  -16.3970    1.0000 </r>
       <r>  -16.1149    1.0000 </r>
       <r>  -16.1131    1.0000 </r>
       <r>  -15.6916    1.0000 </r>
       <r>  -15.6866    1.0000 </r>
       <r>  -15.2131    1.0000 </r>
       <r>  -15.2073    1.0000 </r>
       <r>  -15.1321    1.0000 </r>
       <r>  -14.9292    1.0000 </r>
       <r>  -14.9292    1.0000 </r>
       <r>  -14.8777    1.0000 </r>
       <r>  -14.8772    1.0000 </r>
       <r>  -14.7549    1.0000 </r>
       <r>  -14.2335    1.0000 </r>
       <r>  -14.2332    1.0000 </r>
       <r>  -14.1828    1.0000 </r>
       <r>  -14.1819    1.0000 </r>
       <r>  -13.3048    1.0000 </r>
       <r>  -13.2969    1.0000 </r>
       <r>  -13.2865    1.0000 </r>
       <r>  -13.2785    1.0000 </r>
       <r>  -13.0561    1.0000 </r>
       <r>  -13.0555    1.0000 </r>
       <r>  -12.7492    1.0000 </r>
       <r>  -12.7419    1.0000 </r>
       <r>  -12.7415    1.0000 </r>
       <r>  -12.7366    1.0000 </r>
       <r>  -12.6560    1.0000 </r>
       <r>  -12.6428    1.0000 </r>
       <r>  -11.9925    1.0000 </r>
       <r>  -11.7025    1.0000 </r>
       <r>  -11.6975    1.0000 </r>
       <r>  -11.4584    1.0000 </r>
       <r>  -11.4573    1.0000 </r>
       <r>  -11.2065    1.0000 </r>
       <r>  -11.2042    1.0000 </r>
       <r>  -11.1070    1.0000 </r>
       <r>  -11.0976    1.0000 </r>
       <r>  -11.0926    1.0000 </r>
       <r>  -11.0714    1.0000 </r>
       <r>  -11.0670    1.0000 </r>
       <r>  -10.8865    1.0000 </r>
       <r>  -10.8762    1.0000 </r>
       <r>  -10.7853    1.0000 </r>
       <r>  -10.7604    1.0000 </r>
       <r>  -10.7575    1.0000 </r>
       <r>  -10.5804    1.0000 </r>
       <r>  -10.5788    1.0000 </r>
       <r>  -10.4121    1.0000 </r>
       <r>  -10.3959    1.0000 </r>
       <r>  -10.2494    1.0000 </r>
       <r>  -10.2493    1.0000 </r>
       <r>  -10.2082    1.0000 </r>
       <r>  -10.2022    1.0000 </r>
       <r>  -10.2008    1.0000 </r>
       <r>  -10.1728    1.0000 </r>
       <r>  -10.1714    1.0000 </r>
       <r>  -10.1295    1.0000 </r>
       <r>  -10.0181    1.0000 </r>
       <r>   -9.9583    1.0000 </r>
       <r>   -9.9569    1.0000 </r>
       <r>   -9.8657    1.0000 </r>
       <r>   -9.8645    1.0000 </r>
       <r>   -9.4552    1.0000 </r>
       <r>   -9.4549    1.0000 </r>
       <r>   -9.4097    1.0000 </r>
       <r>   -9.4091    1.0000 </r>
       <r>   -9.0672    1.0000 </r>
       <r>   -8.9752    1.0000 </r>
       <r>   -8.8641    1.0000 </r>
       <r>   -8.8471    1.0000 </r>
       <r>   -8.7011    1.0000 </r>
       <r>   -8.6998    1.0000 </r>
       <r>   -8.6003    1.0000 </r>
       <r>   -8.5990    1.0000 </r>
       <r>   -8.5289    1.0000 </r>
       <r>   -8.5271    1.0000 </r>
       <r>   -8.3372    1.0000 </r>
       <r>   -8.3368    1.0000 </r>
       <r>   -8.2452    1.0000 </r>
       <r>   -8.2403    1.0000 </r>
       <r>   -8.2283    1.0000 </r>
       <r>   -8.1359    1.0000 </r>
       <r>   -8.1354    1.0000 </r>
       <r>   -8.1329    1.0000 </r>
       <r>   -8.0791    1.0000 </r>
       <r>   -8.0788    1.0000 </r>
       <r>   -7.6346    1.0000 </r>
       <r>   -7.6333    1.0000 </r>
       <r>   -7.6319    1.0000 </r>
       <r>   -7.1621    1.0000 </r>
       <r>   -7.1366    1.0000 </r>
       <r>   -7.1348    1.0000 </r>
       <r>   -6.9620    1.0000 </r>
       <r>   -6.9609    1.0000 </r>
       <r>   -6.9402    1.0000 </r>
       <r>   -6.4065    1.0000 </r>
       <r>   -6.4060    1.0000 </r>
       <r>   -6.4029    1.0000 </r>
       <r>   -6.4027    1.0000 </r>
       <r>   -6.3862    1.0000 </r>
       <r>   -6.3730    1.0000 </r>
       <r>   -6.3471    1.0000 </r>
       <r>   -6.1991    1.0000 </r>
       <r>   -6.1767    1.0000 </r>
       <r>   -6.1726    1.0000 </r>
       <r>   -6.0690    1.0000 </r>
       <r>   -6.0667    1.0000 </r>
       <r>   -5.9168    1.0000 </r>
       <r>   -5.9145    1.0000 </r>
       <r>   -5.9075    1.0000 </r>
       <r>   -5.9047    1.0000 </r>
       <r>   -5.0888    1.0000 </r>
       <r>   -5.0870    1.0000 </r>
       <r>   -5.0856    1.0000 </r>
       <r>   -2.7558    0.0000 </r>
       <r>   -2.7549    0.0000 </r>
       <r>   -2.7161    0.0000 </r>
       <r>   -2.7146    0.0000 </r>
       <r>   -2.4343    0.0000 </r>
       <r>   -2.4245    0.0000 </r>
       <r>   -2.4243    0.0000 </r>
       <r>   -1.7755    0.0000 </r>
       <r>   -1.7740    0.0000 </r>
       <r>   -1.7710    0.0000 </r>
       <r>   -1.6438    0.0000 </r>
       <r>   -1.5533    0.0000 </r>
       <r>   -1.2231    0.0000 </r>
       <r>   -1.2222    0.0000 </r>
       <r>   -1.2137    0.0000 </r>
       <r>   -1.1151    0.0000 </r>
       <r>   -1.1144    0.0000 </r>
       <r>   -1.1044    0.0000 </r>
       <r>   -0.4350    0.0000 </r>
       <r>   -0.3551    0.0000 </r>
       <r>   -0.3529    0.0000 </r>
       <r>   -0.2588    0.0000 </r>
       <r>   -0.2582    0.0000 </r>
       <r>   -0.2419    0.0000 </r>
       <r>   -0.1487    0.0000 </r>
       <r>   -0.1479    0.0000 </r>
       <r>   -0.0348    0.0000 </r>
       <r>   -0.0339    0.0000 </r>
       <r>    0.0483    0.0000 </r>
       <r>    0.1696    0.0000 </r>
       <r>    0.1707    0.0000 </r>
       <r>    0.2411    0.0000 </r>
       <r>    0.3235    0.0000 </r>
       <r>    0.3522    0.0000 </r>
       <r>    0.3543    0.0000 </r>
       <r>    0.3892    0.0000 </r>
       <r>    0.3998    0.0000 </r>
[...]
       <r>   -23.6726     0.0000    10.0000 </r>
       <r>   -23.5762     0.0000    10.0000 </r>
       <r>   -23.4798     0.0000    10.0000 </r>
       <r>   -23.3834     0.0000    10.0000 </r>
       <r>   -23.2870     0.0000    10.0000 </r>
       <r>   -23.1907     0.0000    10.0000 </r>
       <r>   -23.0943     0.0000    10.0000 </r>
       <r>   -22.9979     0.0000    10.0000 </r>
       <r>   -22.9015     0.0000    10.0000 </r>
       <r>   -22.8051     0.0000    10.0000 </r>
       <r>   -22.7088     0.0000    10.0000 </r>
       <r>   -22.6124     0.0000    10.0000 </r>
       <r>   -22.5160     0.0000    10.0000 </r>
       <r>   -22.4196    72.9644    17.0324 </r>
       <r>   -22.3232     0.0000    18.0000 </r>
       <r>   -22.2268     0.0000    18.0000 </r>
       <r>   -22.1305     0.0000    18.0000 </r>
       <r>   -22.0341     0.0000    18.0000 </r>
       <r>   -21.9377     0.0000    18.0000 </r>
       <r>   -21.8413     0.0000    18.0000 </r>
       <r>   -21.7449     0.0000    18.0000 </r>
       <r>   -21.6486    14.5007    19.3976 </r>
       <r>   -21.5522    34.2108    24.0000 </r>
       <r>   -21.4558     0.0004    24.0000 </r>
       <r>   -21.3594    55.6824    29.3667 </r>
       <r>   -21.2630     0.0000    30.0000 </r>
       <r>   -21.1667     0.0000    30.0000 </r>
       <r>   -21.0703     0.0000    30.0000 </r>
       <r>   -20.9739     0.0000    30.0000 </r>
       <r>   -20.8775     0.0000    30.0000 </r>
       <r>   -20.7811     0.0000    30.0000 </r>
       <r>   -20.6848     0.0000    30.0000 </r>
       <r>   -20.5884     1.9379    30.1868 </r>
       <r>   -20.4920    34.4705    36.0000 </r>
       <r>   -20.3956    62.2530    42.0000 </r>
       <r>   -20.2992     0.0000    42.0000 </r>
       <r>   -20.2029     0.0000    42.0000 </r>
       <r>   -20.1065     0.0000    42.0000 </r>
       <r>   -20.0101     0.0000    42.0000 </r>
       <r>   -19.9137     0.0000    42.0000 </r>
       <r>   -19.8173     0.0000    42.0000 </r>
       <r>   -19.7210     0.0000    42.0000 </r>
       <r>   -19.6246     0.0000    42.0000 </r>
       <r>   -19.5282     0.0000    42.0000 </r>
       <r>   -19.4318     0.0000    42.0000 </r>
       <r>   -19.3354     0.0000    42.0000 </r>
       <r>   -19.2390     0.0000    42.0000 </r>
       <r>   -19.1427     0.1163    42.0112 </r>
       <r>   -19.0463    44.3783    46.2884 </r>
       <r>   -18.9499     8.9794    47.7326 </r>
       <r>   -18.8535     0.0000    48.0000 </r>
       <r>   -18.7571    14.7230    49.4190 </r>
       <r>   -18.6608     5.8928    50.9347 </r>
       <r>   -18.5644    14.9520    52.5084 </r>
       <r>   -18.4680    67.2005    59.4437 </r>
       <r>   -18.3716    62.2488    66.0000 </r>
       <r>   -18.2752     0.0000    66.0000 </r>
       <r>   -18.1789     0.0000    66.0000 </r>
       <r>   -18.0825     0.0000    66.0000 </r>
       <r>   -17.9861     0.0000    66.0000 </r>
       <r>   -17.8897     0.0000    66.0000 </r>
       <r>   -17.7933     0.0000    66.0000 </r>
       <r>   -17.6970     0.0000    66.0000 </r>
       <r>   -17.6006     0.0000    66.0000 </r>
       <r>   -17.5042     0.0000    66.0000 </r>
       <r>   -17.4078     0.0000    66.0000 </r>
       <r>   -17.3114     0.0000    66.0000 </r>
       <r>   -17.2151     0.0000    66.0000 </r>
       <r>   -17.1187    28.7408    68.7701 </r>
       <r>   -17.0223    11.1694    69.9435 </r>
       <r>   -16.9259     9.4732    71.0798 </r>
       <r>   -16.8295     4.2130    71.5729 </r>
       <r>   -16.7331    24.2061    74.0000 </r>
       <r>   -16.6368     0.0000    74.0000 </r>
       <r>   -16.5404     0.0000    74.0000 </r>
       <r>   -16.4440     9.9468    74.9587 </r>
       <r>   -16.3476    24.5440    78.0000 </r>
       <r>   -16.2512     0.0000    78.0000 </r>
       <r>   -16.1549     0.0000    78.0000 </r>
       <r>   -16.0585    27.8938    80.6884 </r>
       <r>   -15.9621     8.6140    81.6302 </r>
       <r>   -15.8657     7.8213    82.5539 </r>
       <r>   -15.7693     4.2820    83.3130 </r>
       <r>   -15.6730    26.8412    85.9541 </r>
       <r>   -15.5766     0.0000    86.0000 </r>
       <r>   -15.4802     0.0000    86.0000 </r>
       <r>   -15.3838     0.0000    86.0000 </r>
       <r>   -15.2874     0.0000    86.0000 </r>
       <r>   -15.1911    41.3201    89.9825 </r>
       <r>   -15.0947     5.4761    90.5278 </r>
       <r>   -14.9983    10.0198    91.5992 </r>
       <r>   -14.9019    43.2755    96.0050 </r>
       <r>   -14.8055    53.0227   101.1172 </r>
       <r>   -14.7092     7.2602   102.0000 </r>
       <r>   -14.6128     0.0000   102.0000 </r>
       <r>   -14.5164     0.0000   102.0000 </r>
       <r>   -14.4200     0.0000   102.0000 </r>
       <r>   -14.3236     0.0000   102.0000 </r>
       <r>   -14.2273    21.4975   104.0719 </r>
       <r>   -14.1309    47.0140   110.0000 </r>
       <r>   -14.0345     0.0000   110.0000 </r>
       <r>   -13.9381     0.0000   110.0000 </r>
       <r>   -13.8417     0.0000   110.0000 </r>
       <r>   -13.7453     0.0000   110.0000 </r>
       <r>   -13.6490     0.0000   110.0000 </r>
       <r>   -13.5526     0.0000   110.0000 </r>
       <r>   -13.4562     0.0000   110.0000 </r>
       <r>   -13.3598     0.0000   110.0000 </r>
       <r>   -13.2634    82.9172   117.9916 </r>
       <r>   -13.1671     0.0000   118.0000 </r>
       <r>   -13.0707     0.4731   118.0456 </r>
       <r>   -12.9743    16.1256   121.7551 </r>
       <r>   -12.8779    11.4456   123.1700 </r>
       <r>   -12.7815     4.0557   123.6576 </r>
       <r>   -12.6852    65.0188   130.0000 </r>
       <r>   -12.5888    24.7046   132.3811 </r>
       <r>   -12.4924     2.9954   132.7221 </r>
       <r>   -12.3960     4.0195   133.1874 </r>
       <r>   -12.2996     6.2131   134.0657 </r>
       <r>   -12.2033     8.2497   134.9621 </r>
       <r>   -12.1069     3.0271   135.3252 </r>
       <r>   -12.0105     3.6490   135.7185 </r>
       <r>   -11.9141     1.7267   136.0000 </r>
       <r>   -11.8177     0.0000   136.0000 </r>
       <r>   -11.7214     6.4154   136.6183 </r>
       <r>   -11.6250    10.2707   138.6257 </r>
       <r>   -11.5286    10.1508   139.7117 </r>
       <r>   -11.4322    27.5852   142.5588 </r>
       <r>   -11.3358    12.0999   144.0000 </r>
       <r>   -11.2394     0.8118   144.0782 </r>
       <r>   -11.1431    68.4959   151.1689 </r>
       <r>   -11.0467    32.8188   154.8640 </r>
       <r>   -10.9503    22.5495   157.7406 </r>
       <r>   -10.8539    33.3199   161.5119 </r>
       <r>   -10.7575    32.2173   165.4735 </r>
       <r>   -10.6612    16.9665   168.0688 </r>
       <r>   -10.5648    35.8780   171.9253 </r>
       <r>   -10.4684     0.0000   172.0000 </r>
       <r>   -10.3720    41.5006   175.9999 </r>
       <r>   -10.2756     0.0022   176.0002 </r>
       <r>   -10.1793   104.6678   186.0882 </r>
       <r>   -10.0829    29.0696   191.2023 </r>
       <r>    -9.9865    25.7713   194.7538 </r>
       <r>    -9.8901    31.9882   198.4507 </r>
       <r>    -9.7937    28.6894   202.0000 </r>
       <r>    -9.6974     0.0000   202.0000 </r>
       <r>    -9.6010     0.0000   202.0000 </r>
       <r>    -9.5046     0.0000   202.0000 </r>
       <r>    -9.4082    71.3005   208.8720 </r>
       <r>    -9.3118     0.0000   210.0000 </r>
       <r>    -9.2155     0.0000   210.0000 </r>
       <r>    -9.1191     0.0000   210.0000 </r>
       <r>    -9.0227    15.8083   211.5236 </r>
       <r>    -8.9263    19.7063   214.0000 </r>
       <r>    -8.8299    41.4761   217.9975 </r>
       <r>    -8.7336     0.0000   218.0000 </r>
       <r>    -8.6372    30.0665   220.8978 </r>
       <r>    -8.5408    71.0458   227.9482 </r>
       <r>    -8.4444     0.0000   230.0000 </r>
       <r>    -8.3480     0.5822   230.0561 </r>
       <r>    -8.2516    49.3085   236.0234 </r>
       <r>    -8.1553    26.7720   240.5807 </r>
       <r>    -8.0589    88.7399   249.9943 </r>
       <r>    -7.9625     0.0000   250.0000 </r>
       <r>    -7.8661     0.0000   250.0000 </r>
       <r>    -7.7697     0.0000   250.0000 </r>
       <r>    -7.6734     0.0000   250.0000 </r>
       <r>    -7.5770    62.2531   256.0000 </r>
       <r>    -7.4806     0.0000   256.0000 </r>
       <r>    -7.3842     0.0000   256.0000 </r>
       <r>    -7.2878     0.0000   256.0000 </r>
       <r>    -7.1915     0.0001   256.0000 </r>
       <r>    -7.0951    62.2531   262.0000 </r>
       <r>    -6.9987     0.0000   262.0000 </r>
       <r>    -6.9023    62.2531   268.0000 </r>
       <r>    -6.8059     0.0000   268.0000 </r>
       <r>    -6.7096     0.0000   268.0000 </r>
       <r>    -6.6132     0.0000   268.0000 </r>
       <r>    -6.5168     0.0000   268.0000 </r>
       <r>    -6.4204     4.5140   268.4351 </r>
       <r>    -6.3240    85.6574   280.8320 </r>
       <r>    -6.2277    20.9260   283.4844 </r>
       <r>    -6.1313    31.7609   286.7613 </r>
       <r>    -6.0349    51.1568   292.0000 </r>
       <r>    -5.9385     0.0204   292.0020 </r>
       <r>    -5.8421    82.9837   300.0000 </r>
       <r>    -5.7457     0.0000   300.0000 </r>
       <r>    -5.6494     0.0000   300.0000 </r>
       <r>    -5.5530     0.0000   300.0000 </r>
       <r>    -5.4566     0.0000   300.0000 </r>
       <r>    -5.3602     0.0000   300.0000 </r>
       <r>    -5.2638     0.0000   300.0000 </r>
       <r>    -5.1675     0.0000   300.0000 </r>
       <r>    -5.0711    61.4761   305.9251 </r>
       <r>    -4.9747     0.0000   306.0000 </r>
       <r>    -4.8783     0.0000   306.0000 </r>
       <r>    -4.7819     0.0000   306.0000 </r>
       <r>    -4.6856     0.0000   306.0000 </r>
       <r>    -4.5892     0.0000   306.0000 </r>
       <r>    -4.4928     0.0000   306.0000 </r>
       <r>    -4.3964     0.0000   306.0000 </r>
       <r>    -4.3000     0.0000   306.0000 </r>
       <r>    -4.2037     0.0000   306.0000 </r>
       <r>    -4.1073     0.0000   306.0000 </r>
       <r>    -4.0109     0.0000   306.0000 </r>
       <r>    -3.9145     0.0000   306.0000 </r>
       <r>    -3.8181     0.0000   306.0000 </r>
       <r>    -3.7218     0.0000   306.0000 </r>
       <r>    -3.6254     0.0000   306.0000 </r>
       <r>    -3.5290     0.0000   306.0000 </r>
       <r>    -3.4326     0.0000   306.0000 </r>
       <r>    -3.3362     0.0000   306.0000 </r>
       <r>    -3.2399     0.0000   306.0000 </r>
       <r>    -3.1435     0.0000   306.0000 </r>
       <r>    -3.0471     0.0000   306.0000 </r>
       <r>    -2.9507     0.0000   306.0000 </r>
       <r>    -2.8543     0.0000   306.0000 </r>
       <r>    -2.7579    13.6031   307.3111 </r>
       <r>    -2.6616    45.6353   314.0000 </r>
       <r>    -2.5652     0.0000   314.0000 </r>
       <r>    -2.4688     0.0000   314.0000 </r>
       <r>    -2.3724    62.2531   320.0000 </r>
       <r>    -2.2760     0.0000   320.0000 </r>
       <r>    -2.1797     0.0000   320.0000 </r>
       <r>    -2.0833     0.0000   320.0000 </r>
       <r>    -1.9869     0.0000   320.0000 </r>
       <r>    -1.8905     0.0000   320.0000 </r>
       <r>    -1.7941     0.1362   320.0131 </r>
       <r>    -1.6978    62.1169   326.0000 </r>
       <r>    -1.6014    19.4745   327.8770 </r>
       <r>    -1.5050    14.5034   330.0000 </r>
       <r>    -1.4086     0.0000   330.0000 </r>
       <r>    -1.3122     0.0000   330.0000 </r>
       <r>    -1.2159    38.9250   333.7516 </r>
       <r>    -1.1195    13.1176   337.2643 </r>
       <r>    -1.0231     0.0000   342.0000 </r>
       <r>    -0.9267     0.0000   342.0000 </r>
       <r>    -0.8303     0.0000   342.0000 </r>
       <r>    -0.7340     0.0000   342.0000 </r>
       <r>    -0.6376     0.0000   342.0000 </r>
       <r>    -0.5412     0.0000   342.0000 </r>
       <r>    -0.4448     0.3835   342.0370 </r>
       <r>    -0.3484    50.7146   347.5225 </r>
       <r>    -0.2520    22.4747   350.1661 </r>
       <r>    -0.1557    24.0743   354.8260 </r>
       <r>    -0.0593    19.5966   358.4561 </r>
       <r>     0.0371    31.3422   361.8897 </r>
       <r>     0.1335    30.6838   366.6576 </r>
       <r>     0.2299    14.2143   368.3707 </r>
       <r>     0.3262    29.6380   373.2573 </r>
       <r>     0.4226    33.2091   376.8719 </r>
       <r>     0.5190    55.9601   382.7946 </r>
       <r>     0.6154    44.1385   388.3884 </r>
       <r>     0.7118    63.4403   395.3817 </r>
       <r>     0.8081    65.9278   403.1569 </r>
       <r>     0.9045    98.3052   414.2097 </r>
       <r>     1.0009     6.2142   416.0000 </r>
       <r>     1.0973     0.0000   416.0000 </r>
       <r>     1.1937     0.0000   416.0000 </r>
       <r>     1.2900     0.0000   416.0000 </r>
       <r>     1.3864     0.0000   416.0000 </r>
       <r>     1.4828     0.0000   416.0000 </r>
       <r>     1.5792     0.0000   416.0000 </r>
       <r>     1.6756     0.0000   416.0000 </r>
       <r>     1.7719     0.0000   416.0000 </r>
       <r>     1.8683     0.0000   416.0000 </r>
       <r>     1.9647     0.0000   416.0000 </r>
       <r>     2.0611     0.0000   416.0000 </r>
       <r>     2.1575     0.0000   416.0000 </r>
       <r>     2.2538     0.0000   416.0000 </r>
      </set>
     </set>
    </array>
   </total>
  </dos>
 </calculation>
 <structure name="finalpos" >
  <crystal>
   <varray name="basis" >
    <v>      29.20465946      -0.00171335       0.00000000 </v>
    <v>     -14.60371546      25.31943412       0.00000000 </v>
    <v>       0.00000000       0.00000000      20.00000000 </v>
   </varray>
   <i name="volume">  14788.40859633 </i>
   <varray name="rec_basis" >
    <v>       0.03424227       0.01975022       0.00000000 </v>
    <v>       0.00000232       0.03949669       0.00000000 </v>
    <v>       0.00000000       0.00000000       0.05000000 </v>
   </varray>
  </crystal>
  <varray name="positions" >
   <v>       0.48406372       0.51445692       0.42979047 </v>
   <v>       0.47164606       0.52768839       0.49200650 </v>
   <v>       0.27953812       0.64191234       0.50012589 </v>
   <v>       0.35743983       0.71975527       0.50032627 </v>
   <v>       0.35749515       0.64192379       0.50010123 </v>
   <v>       0.38664573       0.77821041       0.49978308 </v>
   <v>       0.35919995       0.80628490       0.49916002 </v>
   <v>       0.38671013       0.86124533       0.49725615 </v>
   <v>       0.44214181       0.88920896       0.49603126 </v>
   <v>       0.46961099       0.86125716       0.49740279 </v>
   <v>       0.44216253       0.80630002       0.49927020 </v>
   <v>       0.22101221       0.61261408       0.49958433 </v>
   <v>       0.19282298       0.63993961       0.49914359 </v>
   <v>       0.13780792       0.61238373       0.49751342 </v>
   <v>       0.10987636       0.55700080       0.49629041 </v>
   <v>       0.13793104       0.52962788       0.49747442 </v>
   <v>       0.19294795       0.55713052       0.49910934 </v>
   <v>       0.38674268       0.61265247       0.49947658 </v>
   <v>       0.35933030       0.55716950       0.49889376 </v>
   <v>       0.38686429       0.52969269       0.49723108 </v>
   <v>       0.44229567       0.55708307       0.49615155 </v>
   <v>       0.46974146       0.61246335       0.49747182 </v>
   <v>       0.44226918       0.64000230       0.49908443 </v>
   <v>       0.71651915       0.36004421       0.50002296 </v>
   <v>       0.63861840       0.28217188       0.50009554 </v>
   <v>       0.63857567       0.36003328       0.49984062 </v>
   <v>       0.60933790       0.22368383       0.49961362 </v>
   <v>       0.63674387       0.19557193       0.49920397 </v>
   <v>       0.60923011       0.14060306       0.49744860 </v>
   <v>       0.55380479       0.11263957       0.49606644 </v>
   <v>       0.52634832       0.14060743       0.49730369 </v>
   <v>       0.55380850       0.19557614       0.49907964 </v>
   <v>       0.77505152       0.38935759       0.49943202 </v>
   <v>       0.80328825       0.36207527       0.49890853 </v>
   <v>       0.85831333       0.38968489       0.49725089 </v>
   <v>       0.88622020       0.44507483       0.49613796 </v>
   <v>       0.85810160       0.47238354       0.49734576 </v>
   <v>       0.80308199       0.44484063       0.49895805 </v>
   <v>       0.60934994       0.38932778       0.49914441 </v>
   <v>       0.63681859       0.44481068       0.49870096 </v>
   <v>       0.60937012       0.47237769       0.49707948 </v>
   <v>       0.55394013       0.44507860       0.49583446 </v>
   <v>       0.52643548       0.38968706       0.49691750 </v>
   <v>       0.55382788       0.36206101       0.49858011 </v>
   <v>       0.52446874       0.05393837       0.49190937 </v>
   <v>       0.51147362       0.02825450       0.42973314 </v>
   <v>       0.48413885       0.97359047       0.42971973 </v>
   <v>       0.47149663       0.94790638       0.49190065 </v>
   <v>       0.94499056       0.47454087       0.49210079 </v>
   <v>       0.97072560       0.48726588       0.42994310 </v>
   <v>       0.02543792       0.51463836       0.42999889 </v>
   <v>       0.05112668       0.52763806       0.49218758 </v>
   <v>       0.52464095       0.47454232       0.49184429 </v>
   <v>       0.51139803       0.48708613       0.42971576 </v>
   <v>       0.48542003       0.51473832       0.55031137 </v>
   <v>       0.30431851       0.69500059       0.50024647 </v>
   <v>       0.38583099       0.69501073       0.50028297 </v>
   <v>       0.30437024       0.61362553       0.50001333 </v>
   <v>       0.69176822       0.30694500       0.50014701 </v>
   <v>       0.61026178       0.30693901       0.49993471 </v>
   <v>       0.69170158       0.38835846       0.49989063 </v>
   <v>       0.48503431       0.97453862       0.55027653 </v>
   <v>       0.51136527       0.02730444       0.55026384 </v>
   <v>       0.02444818       0.51453423       0.55054642 </v>
   <v>       0.97165461       0.48812227       0.55047537 </v>
   <v>       0.51177727       0.48829356       0.55023381 </v>
   <v>       0.47237727       0.52566778       0.38357233 </v>
   <v>       0.11611240       0.63381428       0.49726269 </v>
   <v>       0.21478188       0.68295301       0.49994301 </v>
   <v>       0.11633167       0.48652979       0.49722140 </v>
   <v>       0.21498914       0.53612259       0.49988938 </v>
   <v>       0.31627625       0.53614056       0.49960373 </v>
   <v>       0.36537405       0.48659670       0.49690480 </v>
   <v>       0.46333211       0.68302047       0.49989198 </v>
   <v>       0.51287094       0.63389881       0.49728975 </v>
   <v>       0.46321281       0.78430012       0.50019038 </v>
   <v>       0.51273870       0.88287837       0.49708742 </v>
   <v>       0.36520711       0.88286865       0.49683839 </v>
   <v>       0.31614800       0.78429688       0.50003502 </v>
   <v>       0.88001512       0.36826355       0.49694459 </v>
   <v>       0.78135205       0.31905229       0.49966409 </v>
   <v>       0.87965403       0.51547761       0.49711220 </v>
   <v>       0.78100486       0.46581759       0.49972616 </v>
   <v>       0.67987095       0.46576798       0.49953189 </v>
   <v>       0.63094626       0.51547204       0.49685287 </v>
   <v>       0.53270610       0.31903829       0.49935254 </v>
   <v>       0.48330551       0.36828114       0.49660863 </v>
   <v>       0.53272636       0.21754290       0.49993674 </v>
   <v>       0.48321596       0.11898336       0.49697209 </v>
   <v>       0.63073521       0.11898597       0.49721684 </v>
   <v>       0.67978896       0.21756610       0.50013784 </v>
   <v>       0.47262981       0.95079162       0.38343991 </v>
   <v>       0.52276268       0.05108045       0.38348890 </v>
   <v>       0.04830388       0.52600653       0.38375738 </v>
   <v>       0.94792950       0.47577430       0.38364860 </v>
   <v>       0.52254005       0.47546473       0.38340432 </v>
  </varray>
 </structure>
</modeling>
