<?xml version="1.0" encoding="ISO-8859-1"?>
<modeling>
 <generator>
  <i name="program" type="string">vasp </i>
  <i name="version" type="string">5.4.4.18Apr17-6-g9f103f2a35  </i>
  <i name="subversion" type="string">(build Jun 07 2020 16:50:00) complex            parallel </i>
  <i name="platform" type="string">LinuxIFC </i>
  <i name="date" type="string">2023 02 23 </i>
  <i name="time" type="string">23:17:40 </i>
 </generator>
 <incar>
  <i type="string" name="SYSTEM">Simulation for cell shape cell volume r</i>
  <i type="int" name="ISTART">     1</i>
  <i type="string" name="PREC">high</i>
  <i type="string" name="ALGO">48</i>
  <i type="int" name="ICHARG">    11</i>
  <i type="int" name="NELM">   200</i>
  <i type="int" name="IBRION">    -1</i>
  <i name="EDIFF">      0.00001000</i>
  <i name="EDIFFG">     -0.01000000</i>
  <i type="int" name="NSW">     0</i>
  <i type="int" name="ISIF">     2</i>
  <i name="ENCUT">    500.00000000</i>
  <i name="POTIM">      0.30000000</i>
  <i type="string" name="LREAL">A</i>
  <i type="int" name="ISMEAR">     0</i>
  <i name="SIGMA">      0.01000000</i>
  <i type="int" name="NWRITE">     0</i>
  <i type="logical" name="LWAVE"> F  </i>
  <i type="logical" name="LCHARG"> F  </i>
  <v type="int" name="KPOINT_BSE">    -1     0     0     0</v>
  <i type="int" name="NELM">   200</i>
  <i type="string" name="GGA">PE</i>
 </incar>
 <structure name="primitive_cell" >
  <crystal>
   <varray name="basis" >
    <v>      29.64765009       0.00229654       0.00000000 </v>
    <v>     -14.82173537      25.68345444       0.00000000 </v>
    <v>       0.00000000       0.00000000      20.00000000 </v>
   </varray>
   <i name="volume">  15229.76218568 </i>
   <varray name="rec_basis" >
    <v>       0.03372798       0.01946417       0.00000000 </v>
    <v>      -0.00000302       0.03893383       0.00000000 </v>
    <v>       0.00000000       0.00000000       0.05000000 </v>
   </varray>
  </crystal>
  <varray name="positions" >
   <v>       0.06257008      -0.46911735      -0.49357136 </v>
   <v>       0.03973628      -0.47195558      -0.43435327 </v>
   <v>       0.03072414      -0.49270373       0.44956442 </v>
   <v>       0.12003489      -0.44115063      -0.49447822 </v>
   <v>      -0.01211284      -0.49765432      -0.43061328 </v>
   <v>      -0.02112452       0.48143577       0.45335877 </v>
   <v>       0.14774686      -0.39691548      -0.45381791 </v>
   <v>       0.14804556      -0.45812513       0.46630445 </v>
   <v>       0.05162036      -0.49074398       0.37979198 </v>
   <v>       0.12610330      -0.38448219      -0.42199284 </v>
   <v>      -0.04396230       0.47842142      -0.48736523 </v>
   <v>       0.12757408      -0.49303289       0.43555054 </v>
   <v>       0.08537059      -0.41569129       0.38520675 </v>
   <v>       0.08089477      -0.44231973       0.35281939 </v>
   <v>       0.04256117       0.47063794       0.34845971 </v>
   <v>      -0.03298430      -0.49889545      -0.36103584 </v>
   <v>       0.20187200      -0.36978974      -0.45376400 </v>
   <v>       0.20221962      -0.43127322       0.46731005 </v>
   <v>      -0.10143656       0.44981943      -0.48631922 </v>
   <v>      -0.02403423      -0.45991246      -0.33067747 </v>
   <v>       0.23012795      -0.38646915      -0.49315803 </v>
   <v>      -0.06642759       0.42601638      -0.36481927 </v>
   <v>      -0.06208264       0.45300808      -0.33311571 </v>
   <v>       0.22275303      -0.33577799      -0.42157749 </v>
   <v>       0.22328333      -0.44476490       0.43607448 </v>
   <v>      -0.10661097       0.39332583       0.44156455 </v>
   <v>      -0.10991516      -0.49868667      -0.41665231 </v>
   <v>      -0.12864921       0.40536846       0.47324269 </v>
   <v>      -0.12995146       0.46627583      -0.44724804 </v>
   <v>       0.28772739      -0.35772778      -0.49279495 </v>
   <v>       0.29425304      -0.28188022      -0.49302034 </v>
   <v>       0.29431742      -0.42703535      -0.49254546 </v>
   <v>      -0.18276048       0.37756011       0.47320851 </v>
   <v>      -0.18412160       0.43872207      -0.44822110 </v>
   <v>       0.31550380      -0.30312208      -0.49283883 </v>
   <v>       0.31553905      -0.38455297      -0.49258666 </v>
   <v>      -0.21152074       0.39373129      -0.48757634 </v>
   <v>      -0.20325582       0.34340836       0.44116622 </v>
   <v>      -0.20557313       0.45183521      -0.41712031 </v>
   <v>       0.37012361      -0.27533365      -0.49269312 </v>
   <v>       0.37015604      -0.35772514      -0.49249105 </v>
   <v>       0.34789095      -0.21090595       0.43549895 </v>
   <v>       0.34869158      -0.44412449      -0.42040244 </v>
   <v>      -0.26911120       0.36432130      -0.48801220 </v>
   <v>       0.39697050      -0.30310945      -0.49245983 </v>
   <v>      -0.27462174       0.28891655      -0.48790144 </v>
   <v>      -0.27674085       0.43303518      -0.48815740 </v>
   <v>       0.38226727      -0.18984651       0.46701789 </v>
   <v>       0.39892826      -0.21774578      -0.49300139 </v>
   <v>       0.39897222      -0.38651930      -0.49266907 </v>
   <v>       0.38255366      -0.43117122      -0.45282738 </v>
   <v>      -0.29631915       0.30970961      -0.48807534 </v>
   <v>      -0.29749865       0.39055529      -0.48820919 </v>
   <v>       0.43946305      -0.28185583      -0.49230929 </v>
   <v>       0.40961628      -0.13568545       0.46595974 </v>
   <v>       0.40975365      -0.45810684      -0.45276808 </v>
   <v>       0.44354744      -0.18951182      -0.45309552 </v>
   <v>       0.44360284      -0.36981697       0.46748011 </v>
   <v>       0.39541334      -0.11518828       0.43482790 </v>
   <v>       0.45642232      -0.21041179      -0.42052912 </v>
   <v>       0.39754850      -0.49195019      -0.42059562 </v>
   <v>       0.45690087      -0.33545776       0.43593374 </v>
   <v>      -0.35093242       0.28134904      -0.48830599 </v>
   <v>      -0.35211245       0.36314855      -0.48834632 </v>
   <v>      -0.32764698       0.21766300      -0.41664836 </v>
   <v>      -0.33174359       0.44923748       0.43964078 </v>
   <v>       0.47052880      -0.13539702      -0.45314153 </v>
   <v>       0.45432891      -0.10770384      -0.49436026 </v>
   <v>       0.47048648      -0.39711821       0.46653524 </v>
   <v>       0.45374700      -0.44184685      -0.49381579 </v>
   <v>      -0.37835764       0.30855046      -0.48848125 </v>
   <v>      -0.36196588       0.19627178      -0.44817772 </v>
   <v>      -0.36557215       0.43596479       0.47220754 </v>
   <v>       0.42643112       0.49668416       0.38732614 </v>
   <v>      -0.37914196       0.22377145      -0.48808100 </v>
   <v>      -0.38147837       0.39137684      -0.48800122 </v>
   <v>      -0.49566270      -0.11374079      -0.42090967 </v>
   <v>      -0.49477913      -0.38288726       0.43546880 </v>
   <v>       0.45254847      -0.48160361       0.35414557 </v>
   <v>      -0.42084631       0.28687523      -0.48864071 </v>
   <v>       0.48378871      -0.05025238      -0.49350948 </v>
   <v>       0.48169941      -0.47137951      -0.49298798 </v>
   <v>      -0.38874389       0.14210712      -0.44715424 </v>
   <v>      -0.39325127       0.46240454       0.47237847 </v>
   <v>      -0.37415064       0.12194433      -0.41604329 </v>
   <v>       0.44507696      -0.03063594       0.34733213 </v>
   <v>       0.49408608      -0.06864355       0.35320923 </v>
   <v>       0.47443831      -0.03954021       0.37940741 </v>
   <v>      -0.38147703       0.49617776       0.44020927 </v>
   <v>      -0.42372587       0.19513624       0.47209282 </v>
   <v>      -0.42607936       0.37421954      -0.44797220 </v>
   <v>      -0.48393961      -0.07290091       0.38613377 </v>
   <v>       0.48536891      -0.49067080      -0.43360554 </v>
   <v>      -0.43703485       0.21571738       0.43961863 </v>
   <v>      -0.43897216       0.33988919      -0.41648968 </v>
   <v>       0.49262252      -0.01854188       0.44933332 </v>
   <v>      -0.49701837      -0.02733319      -0.43409675 </v>
   <v>      -0.49859662      -0.46220260       0.37990800 </v>
   <v>      -0.49552890      -0.48030962       0.44980311 </v>
   <v>      -0.43341576       0.11371342      -0.48676764 </v>
   <v>      -0.43721565       0.44569695      -0.48638046 </v>
   <v>      -0.45015222       0.14102206       0.47212926 </v>
   <v>      -0.45344068       0.40103785      -0.44677830 </v>
   <v>      -0.41119069      -0.49313107      -0.36611280 </v>
   <v>      -0.46045830      -0.43305963       0.34750271 </v>
   <v>      -0.48873035       0.48336043      -0.43005613 </v>
   <v>       0.47542416       0.43524582      -0.32857608 </v>
   <v>      -0.48146936       0.03329643       0.45295435 </v>
   <v>      -0.47116405       0.02453330      -0.43047032 </v>
   <v>      -0.46959108       0.49374721       0.45335832 </v>
   <v>      -0.43756760       0.48450653      -0.33358914 </v>
   <v>      -0.48395372       0.11907742       0.43997878 </v>
   <v>      -0.48618093       0.46487506      -0.36021765 </v>
   <v>      -0.48815481       0.38645237      -0.41560011 </v>
   <v>      -0.46242899       0.05624093      -0.48761209 </v>
   <v>      -0.46568818       0.47470115      -0.48719206 </v>
   <v>      -0.42415664       0.03630047      -0.32806328 </v>
   <v>      -0.45303982       0.04561445      -0.36055719 </v>
   <v>      -0.47216459       0.07533686      -0.33487468 </v>
   <v>      -0.49359720       0.08008391      -0.36816391 </v>
  </varray>
 </structure>
 <varray name="primitive_index" >
  <v type="int" >        1 </v>
  <v type="int" >      115 </v>
  <v type="int" >        2 </v>
  <v type="int" >        5 </v>
  <v type="int" >       58 </v>
  <v type="int" >      120 </v>
  <v type="int" >        4 </v>
  <v type="int" >        6 </v>
  <v type="int" >        3 </v>
  <v type="int" >       68 </v>
  <v type="int" >       59 </v>
  <v type="int" >       69 </v>
  <v type="int" >       67 </v>
  <v type="int" >      104 </v>
  <v type="int" >      103 </v>
  <v type="int" >       60 </v>
  <v type="int" >       20 </v>
  <v type="int" >       21 </v>
  <v type="int" >       43 </v>
  <v type="int" >      109 </v>
  <v type="int" >       19 </v>
  <v type="int" >      100 </v>
  <v type="int" >      110 </v>
  <v type="int" >       70 </v>
  <v type="int" >       71 </v>
  <v type="int" >       83 </v>
  <v type="int" >       85 </v>
  <v type="int" >       42 </v>
  <v type="int" >       44 </v>
  <v type="int" >        7 </v>
  <v type="int" >       80 </v>
  <v type="int" >       81 </v>
  <v type="int" >       41 </v>
  <v type="int" >       45 </v>
  <v type="int" >        8 </v>
  <v type="int" >       12 </v>
  <v type="int" >       40 </v>
  <v type="int" >       84 </v>
  <v type="int" >       86 </v>
  <v type="int" >        9 </v>
  <v type="int" >       11 </v>
  <v type="int" >       79 </v>
  <v type="int" >       72 </v>
  <v type="int" >       28 </v>
  <v type="int" >       10 </v>
  <v type="int" >       95 </v>
  <v type="int" >       96 </v>
  <v type="int" >       14 </v>
  <v type="int" >       13 </v>
  <v type="int" >       22 </v>
  <v type="int" >       23 </v>
  <v type="int" >       29 </v>
  <v type="int" >       33 </v>
  <v type="int" >       82 </v>
  <v type="int" >       15 </v>
  <v type="int" >       24 </v>
  <v type="int" >       18 </v>
  <v type="int" >       27 </v>
  <v type="int" >       78 </v>
  <v type="int" >       76 </v>
  <v type="int" >       73 </v>
  <v type="int" >       74 </v>
  <v type="int" >       30 </v>
  <v type="int" >       32 </v>
  <v type="int" >       94 </v>
  <v type="int" >       87 </v>
  <v type="int" >       17 </v>
  <v type="int" >       16 </v>
  <v type="int" >       26 </v>
  <v type="int" >       25 </v>
  <v type="int" >       31 </v>
  <v type="int" >       35 </v>
  <v type="int" >       47 </v>
  <v type="int" >      102 </v>
  <v type="int" >       34 </v>
  <v type="int" >       46 </v>
  <v type="int" >       77 </v>
  <v type="int" >       75 </v>
  <v type="int" >      114 </v>
  <v type="int" >       97 </v>
  <v type="int" >       61 </v>
  <v type="int" >       64 </v>
  <v type="int" >       36 </v>
  <v type="int" >       48 </v>
  <v type="int" >       93 </v>
  <v type="int" >      111 </v>
  <v type="int" >      112 </v>
  <v type="int" >       63 </v>
  <v type="int" >       88 </v>
  <v type="int" >       39 </v>
  <v type="int" >       51 </v>
  <v type="int" >      101 </v>
  <v type="int" >      117 </v>
  <v type="int" >       91 </v>
  <v type="int" >       89 </v>
  <v type="int" >       62 </v>
  <v type="int" >      116 </v>
  <v type="int" >       66 </v>
  <v type="int" >       65 </v>
  <v type="int" >       37 </v>
  <v type="int" >       49 </v>
  <v type="int" >       38 </v>
  <v type="int" >       50 </v>
  <v type="int" >       99 </v>
  <v type="int" >      113 </v>
  <v type="int" >       55 </v>
  <v type="int" >      107 </v>
  <v type="int" >      118 </v>
  <v type="int" >       52 </v>
  <v type="int" >      119 </v>
  <v type="int" >      108 </v>
  <v type="int" >       92 </v>
  <v type="int" >       57 </v>
  <v type="int" >       90 </v>
  <v type="int" >       53 </v>
  <v type="int" >       56 </v>
  <v type="int" >      105 </v>
  <v type="int" >       54 </v>
  <v type="int" >      106 </v>
  <v type="int" >       98 </v>
 </varray>
 <kpoints>
  <generation param="listgenerated">
   <i name="divisions" type="int">      20 </i>
   <v>       0.00000000       0.00000000       0.00000000 </v>
   <v>       0.50000000       0.00000000       0.00000000 </v>
   <v>       0.33333333       0.33333333       0.00000000 </v>
   <v>       0.00000000       0.00000000       0.00000000 </v>
  </generation>
  <varray name="kpointlist" >
   <v>       0.00000000       0.00000000       0.00000000 </v>
   <v>       0.02631579       0.00000000       0.00000000 </v>
   <v>       0.05263158       0.00000000       0.00000000 </v>
   <v>       0.07894737       0.00000000       0.00000000 </v>
   <v>       0.10526316       0.00000000       0.00000000 </v>
   <v>       0.13157895       0.00000000       0.00000000 </v>
   <v>       0.15789474       0.00000000       0.00000000 </v>
   <v>       0.18421053       0.00000000       0.00000000 </v>
   <v>       0.21052632       0.00000000       0.00000000 </v>
   <v>       0.23684211       0.00000000       0.00000000 </v>
   <v>       0.26315789       0.00000000       0.00000000 </v>
   <v>       0.28947368       0.00000000       0.00000000 </v>
   <v>       0.31578947       0.00000000       0.00000000 </v>
   <v>       0.34210526       0.00000000       0.00000000 </v>
   <v>       0.36842105       0.00000000       0.00000000 </v>
   <v>       0.39473684       0.00000000       0.00000000 </v>
   <v>       0.42105263       0.00000000       0.00000000 </v>
   <v>       0.44736842       0.00000000       0.00000000 </v>
   <v>       0.47368421       0.00000000       0.00000000 </v>
   <v>       0.50000000       0.00000000       0.00000000 </v>
   <v>       0.50000000       0.00000000       0.00000000 </v>
   <v>       0.49122807       0.01754386       0.00000000 </v>
   <v>       0.48245614       0.03508772       0.00000000 </v>
   <v>       0.47368421       0.05263158       0.00000000 </v>
   <v>       0.46491228       0.07017544       0.00000000 </v>
   <v>       0.45614035       0.08771930       0.00000000 </v>
   <v>       0.44736842       0.10526316       0.00000000 </v>
   <v>       0.43859649       0.12280702       0.00000000 </v>
   <v>       0.42982456       0.14035088       0.00000000 </v>
   <v>       0.42105263       0.15789474       0.00000000 </v>
   <v>       0.41228070       0.17543860       0.00000000 </v>
   <v>       0.40350877       0.19298246       0.00000000 </v>
   <v>       0.39473684       0.21052632       0.00000000 </v>
   <v>       0.38596491       0.22807018       0.00000000 </v>
   <v>       0.37719298       0.24561404       0.00000000 </v>
   <v>       0.36842105       0.26315789       0.00000000 </v>
   <v>       0.35964912       0.28070175       0.00000000 </v>
   <v>       0.35087719       0.29824561       0.00000000 </v>
   <v>       0.34210526       0.31578947       0.00000000 </v>
   <v>       0.33333333       0.33333333       0.00000000 </v>
   <v>       0.33333333       0.33333333       0.00000000 </v>
   <v>       0.31578947       0.31578947       0.00000000 </v>
   <v>       0.29824561       0.29824561       0.00000000 </v>
   <v>       0.28070175       0.28070175       0.00000000 </v>
   <v>       0.26315789       0.26315789       0.00000000 </v>
   <v>       0.24561404       0.24561404       0.00000000 </v>
   <v>       0.22807018       0.22807018       0.00000000 </v>
   <v>       0.21052632       0.21052632       0.00000000 </v>
   <v>       0.19298246       0.19298246       0.00000000 </v>
   <v>       0.17543860       0.17543860       0.00000000 </v>
   <v>       0.15789474       0.15789474       0.00000000 </v>
   <v>       0.14035088       0.14035088       0.00000000 </v>
   <v>       0.12280702       0.12280702       0.00000000 </v>
   <v>       0.10526316       0.10526316       0.00000000 </v>
   <v>       0.08771930       0.08771930       0.00000000 </v>
   <v>       0.07017544       0.07017544       0.00000000 </v>
   <v>       0.05263158       0.05263158       0.00000000 </v>
   <v>       0.03508772       0.03508772       0.00000000 </v>
   <v>       0.01754386       0.01754386       0.00000000 </v>
   <v>       0.00000000       0.00000000       0.00000000 </v>
  </varray>
  <varray name="weights" >
   <v>       0.01666667 </v>
   <v>       0.01666667 </v>
   <v>       0.01666667 </v>
   <v>       0.01666667 </v>
   <v>       0.01666667 </v>
   <v>       0.01666667 </v>
   <v>       0.01666667 </v>
   <v>       0.01666667 </v>
   <v>       0.01666667 </v>
   <v>       0.01666667 </v>
   <v>       0.01666667 </v>
   <v>       0.01666667 </v>
   <v>       0.01666667 </v>
   <v>       0.01666667 </v>
   <v>       0.01666667 </v>
   <v>       0.01666667 </v>
   <v>       0.01666667 </v>
   <v>       0.01666667 </v>
   <v>       0.01666667 </v>
   <v>       0.01666667 </v>
   <v>       0.01666667 </v>
   <v>       0.01666667 </v>
   <v>       0.01666667 </v>
   <v>       0.01666667 </v>
   <v>       0.01666667 </v>
   <v>       0.01666667 </v>
   <v>       0.01666667 </v>
   <v>       0.01666667 </v>
   <v>       0.01666667 </v>
   <v>       0.01666667 </v>
   <v>       0.01666667 </v>
   <v>       0.01666667 </v>
   <v>       0.01666667 </v>
   <v>       0.01666667 </v>
   <v>       0.01666667 </v>
   <v>       0.01666667 </v>
   <v>       0.01666667 </v>
   <v>       0.01666667 </v>
   <v>       0.01666667 </v>
   <v>       0.01666667 </v>
   <v>       0.01666667 </v>
   <v>       0.01666667 </v>
   <v>       0.01666667 </v>
   <v>       0.01666667 </v>
   <v>       0.01666667 </v>
   <v>       0.01666667 </v>
   <v>       0.01666667 </v>
   <v>       0.01666667 </v>
   <v>       0.01666667 </v>
   <v>       0.01666667 </v>
   <v>       0.01666667 </v>
   <v>       0.01666667 </v>
   <v>       0.01666667 </v>
   <v>       0.01666667 </v>
   <v>       0.01666667 </v>
   <v>       0.01666667 </v>
   <v>       0.01666667 </v>
   <v>       0.01666667 </v>
   <v>       0.01666667 </v>
   <v>       0.01666667 </v>
  </varray>
 </kpoints>
 <parameters>
  <separator name="general" >
   <i type="string" name="SYSTEM">Simulation for cell shape cell volume r</i>
   <i type="logical" name="LCOMPAT"> F  </i>
  </separator>
  <separator name="electronic" >
   <i type="string" name="PREC">high</i>
   <i name="ENMAX">    500.00000000</i>
   <i name="ENAUG">    644.87300000</i>
   <i name="EDIFF">      0.00001000</i>
   <i type="int" name="IALGO">    38</i>
   <i type="int" name="IWAVPR">    10</i>
   <i type="int" name="NBANDS">   272</i>
   <i name="NELECT">    402.00000000</i>
   <i type="int" name="TURBO">     0</i>
   <i type="int" name="IRESTART">     0</i>
   <i type="int" name="NREBOOT">     0</i>
   <i type="int" name="NMIN">     0</i>
   <i name="EREF">      0.00000000</i>
   <separator name="electronic smearing" >
    <i type="int" name="ISMEAR">     0</i>
    <i name="SIGMA">      0.01000000</i>
    <i name="KSPACING">      0.50000000</i>
    <i type="logical" name="KGAMMA"> T  </i>
   </separator>
   <separator name="electronic projectors" >
    <i type="logical" name="LREAL"> T  </i>
    <v name="ROPT">     -0.00040000     -0.00040000     -0.00040000     -0.00040000</v>
    <i type="int" name="LMAXPAW">  -100</i>
    <i type="int" name="LMAXMIX">     2</i>
    <i type="logical" name="NLSPLINE"> F  </i>
   </separator>
   <separator name="electronic startup" >
    <i type="int" name="ISTART">     1</i>
    <i type="int" name="ICHARG">    11</i>
    <i type="int" name="INIWAV">     1</i>
   </separator>
   <separator name="electronic spin" >
    <i type="int" name="ISPIN">     1</i>
    <i type="logical" name="LNONCOLLINEAR"> F  </i>
    <v name="MAGMOM">      1.00000000      1.00000000      1.00000000      1.00000000      1.00000000      1.00000000      1.00000000      1.00000000      1.00000000      1.00000000      1.00000000      1.00000000      1.00000000      1.00000000      1.00000000      1.00000000      1.00000000      1.00000000      1.00000000      1.00000000
      1.00000000      1.00000000      1.00000000      1.00000000      1.00000000      1.00000000      1.00000000      1.00000000      1.00000000      1.00000000      1.00000000      1.00000000      1.00000000      1.00000000      1.00000000      1.00000000      1.00000000      1.00000000      1.00000000      1.00000000
      1.00000000      1.00000000      1.00000000      1.00000000      1.00000000      1.00000000      1.00000000      1.00000000      1.00000000      1.00000000      1.00000000      1.00000000      1.00000000      1.00000000      1.00000000      1.00000000      1.00000000      1.00000000      1.00000000      1.00000000
      1.00000000      1.00000000      1.00000000      1.00000000      1.00000000      1.00000000      1.00000000      1.00000000      1.00000000      1.00000000      1.00000000      1.00000000      1.00000000      1.00000000      1.00000000      1.00000000      1.00000000      1.00000000      1.00000000      1.00000000
      1.00000000      1.00000000      1.00000000      1.00000000      1.00000000      1.00000000      1.00000000      1.00000000      1.00000000      1.00000000      1.00000000      1.00000000      1.00000000      1.00000000      1.00000000      1.00000000      1.00000000      1.00000000      1.00000000      1.00000000
      1.00000000      1.00000000      1.00000000      1.00000000      1.00000000      1.00000000      1.00000000      1.00000000      1.00000000      1.00000000      1.00000000      1.00000000      1.00000000      1.00000000      1.00000000      1.00000000      1.00000000      1.00000000      1.00000000      1.00000000
</v>
    <i name="NUPDOWN">     -1.00000000</i>
    <i type="logical" name="LSORBIT"> F  </i>
    <v name="SAXIS">      0.00000000      0.00000000      1.00000000</v>
    <i type="logical" name="LSPIRAL"> F  </i>
    <v name="QSPIRAL">      0.00000000      0.00000000      0.00000000</v>
    <i type="logical" name="LZEROZ"> F  </i>
   </separator>
   <separator name="electronic exchange-correlation" >
    <i type="logical" name="LASPH"> F  </i>
    <i type="logical" name="LMETAGGA"> F  </i>
   </separator>
   <separator name="electronic convergence" >
    <i type="int" name="NELM">   200</i>
    <i type="int" name="NELMDL">     0</i>
    <i type="int" name="NELMIN">     2</i>
    <i name="ENINI">    500.00000000</i>
    <separator name="electronic convergence detail" >
     <i type="logical" name="LDIAG"> T  </i>
     <i type="logical" name="LSUBROT"> F  </i>
     <i name="WEIMIN">      0.00000000</i>
     <i name="EBREAK">      0.00000001</i>
     <i name="DEPER">      0.30000000</i>
     <i type="int" name="NRMM">     4</i>
     <i name="TIME">      0.40000000</i>
    </separator>
   </separator>
   <separator name="electronic mixer" >
    <i name="AMIX">      0.40000000</i>
    <i name="BMIX">      1.00000000</i>
    <i name="AMIN">      0.10000000</i>
    <i name="AMIX_MAG">      1.60000000</i>
    <i name="BMIX_MAG">      1.00000000</i>
    <separator name="electronic mixer details" >
     <i type="int" name="IMIX">     4</i>
     <i type="logical" name="MIXFIRST"> F  </i>
     <i type="int" name="MAXMIX">   -45</i>
     <i name="WC">    100.00000000</i>
     <i type="int" name="INIMIX">     1</i>
     <i type="int" name="MIXPRE">     1</i>
     <i type="int" name="MREMOVE">     5</i>
    </separator>
   </separator>
   <separator name="electronic dipolcorrection" >
    <i type="logical" name="LDIPOL"> F  </i>
    <i type="logical" name="LMONO"> F  </i>
    <i type="int" name="IDIPOL">     0</i>
    <i name="EPSILON">      1.00000000</i>
    <v name="DIPOL">   -100.00000000   -100.00000000   -100.00000000</v>
    <i name="EFIELD">      0.00000000</i>
   </separator>
  </separator>
  <separator name="grids" >
   <i type="int" name="NGX">   216</i>
   <i type="int" name="NGY">   216</i>
   <i type="int" name="NGZ">   150</i>
   <i type="int" name="NGXF">   336</i>
   <i type="int" name="NGYF">   336</i>
   <i type="int" name="NGZF">   224</i>
   <i type="logical" name="ADDGRID"> F  </i>
  </separator>
  <separator name="ionic" >
   <i type="int" name="NSW">     0</i>
   <i type="int" name="IBRION">    -1</i>
   <i type="int" name="MDALGO">     0</i>
   <i type="int" name="ISIF">     2</i>
   <i name="PSTRESS">      0.00000000</i>
   <i name="EDIFFG">     -0.01000000</i>
   <i type="int" name="NFREE">     0</i>
   <i name="POTIM">      0.30000000</i>
   <i name="SMASS">     -3.00000000</i>
   <i name="SCALEE">      1.00000000</i>
  </separator>
  <separator name="ionic md" >
   <i name="TEBEG">      0.00010000</i>
   <i name="TEEND">      0.00010000</i>
   <i type="int" name="NBLOCK">     1</i>
   <i type="int" name="KBLOCK">     1</i>
   <i type="int" name="NPACO">   256</i>
   <i name="APACO">     16.00000000</i>
  </separator>
  <separator name="symmetry" >
   <i type="int" name="ISYM">     2</i>
   <i name="SYMPREC">      0.00001000</i>
  </separator>
  <separator name="dos" >
   <i type="int" name="LORBIT">     0</i>
   <v name="RWIGS">     -1.00000000     -1.00000000     -1.00000000     -1.00000000</v>
   <i type="int" name="NEDOS">   301</i>
   <i name="EMIN">     10.00000000</i>
   <i name="EMAX">    -10.00000000</i>
   <i name="EFERMI">      0.00000000</i>
  </separator>
  <separator name="writing" >
   <i type="int" name="NWRITE">     0</i>
   <i type="logical" name="LWAVE"> F  </i>
   <i type="logical" name="LDOWNSAMPLE"> F  </i>
   <i type="logical" name="LCHARG"> F  </i>
   <i type="logical" name="LPARD"> F  </i>
   <i type="logical" name="LVTOT"> F  </i>
   <i type="logical" name="LVHAR"> F  </i>
   <i type="logical" name="LELF"> F  </i>
   <i type="logical" name="LOPTICS"> F  </i>
   <v name="STM">      0.00000000      0.00000000      0.00000000      0.00000000      0.00000000      0.00000000      0.00000000</v>
  </separator>
  <separator name="performance" >
   <i type="int" name="NPAR">    16</i>
   <i type="int" name="NSIM">     4</i>
   <i type="int" name="NBLK">    -1</i>
   <i type="logical" name="LPLANE"> T  </i>
   <i type="logical" name="LSCALAPACK"> T  </i>
   <i type="logical" name="LSCAAWARE"> F  </i>
   <i type="logical" name="LSCALU"> F  </i>
   <i type="logical" name="LASYNC"> F  </i>
   <i type="logical" name="LORBITALREAL"> F  </i>
  </separator>
  <separator name="miscellaneous" >
   <i type="int" name="IDIOT">     3</i>
   <i type="int" name="ISPECIAL">     0</i>
   <i type="logical" name="LMUSIC"> F  </i>
   <v name="POMASS">     12.01100000      1.00000000     16.00000000     14.00100000</v>
   <v name="DARWINR">      0.00000000      0.00000000      0.00000000      0.00000000</v>
   <v name="DARWINV">      1.00000000      1.00000000      1.00000000      1.00000000</v>
   <i type="logical" name="LCORR"> T  </i>
  </separator>
  <i type="logical" name="GGA_COMPAT"> T  </i>
  <i type="logical" name="LBERRY"> F  </i>
  <i type="int" name="ICORELEVEL">     0</i>
  <i type="logical" name="LDAU"> F  </i>
  <i type="int" name="I_CONSTRAINED_M">     0</i>
  <separator name="electronic exchange-correlation" >
   <i type="string" name="GGA">PE</i>
   <i type="int" name="VOSKOWN">     0</i>
   <i type="logical" name="LHFCALC"> F  </i>
   <i type="string" name="PRECFOCK"></i>
   <i type="logical" name="LSYMGRAD"> F  </i>
   <i type="logical" name="LHFONE"> F  </i>
   <i type="logical" name="LRHFCALC"> F  </i>
   <i type="logical" name="LTHOMAS"> F  </i>
   <i type="logical" name="LMODELHF"> F  </i>
   <i name="ENCUT4O">     -1.00000000</i>
   <i type="int" name="EXXOEP">     0</i>
   <i type="int" name="FOURORBIT">     0</i>
   <i name="AEXX">      0.00000000</i>
   <i name="HFALPHA">      0.00000000</i>
   <i name="MCALPHA">      0.00000000</i>
   <i name="ALDAX">      1.00000000</i>
   <i name="AGGAX">      1.00000000</i>
   <i name="ALDAC">      1.00000000</i>
   <i name="AGGAC">      1.00000000</i>
   <i type="int" name="NKREDX">     1</i>
   <i type="int" name="NKREDY">     1</i>
   <i type="int" name="NKREDZ">     1</i>
   <i type="logical" name="SHIFTRED"> F  </i>
   <i type="logical" name="ODDONLY"> F  </i>
   <i type="logical" name="EVENONLY"> F  </i>
   <i type="int" name="LMAXFOCK">     0</i>
   <i type="int" name="NMAXFOCKAE">     0</i>
   <i type="logical" name="LFOCKAEDFT"> F  </i>
   <i name="HFSCREEN">      0.00000000</i>
   <i name="HFSCREENC">      0.00000000</i>
   <i type="int" name="NBANDSGWLOW">     0</i>
  </separator>
  <separator name="vdW DFT" >
   <i type="logical" name="LUSE_VDW"> F  </i>
   <i name="Zab_VDW">     -0.84910000</i>
   <i name="PARAM1">      0.12340000</i>
   <i name="PARAM2">      1.00000000</i>
   <i name="PARAM3">      0.00000000</i>
  </separator>
  <separator name="model GW" >
   <i type="int" name="MODEL_GW">     0</i>
   <i name="MODEL_EPS0">     76.14881093</i>
   <i name="MODEL_ALPHA">      1.00000000</i>
  </separator>
  <separator name="linear response parameters" >
   <i type="logical" name="LEPSILON"> F  </i>
   <i type="logical" name="LRPA"> F  </i>
   <i type="logical" name="LNABLA"> F  </i>
   <i type="logical" name="LVEL"> F  </i>
   <i type="int" name="KINTER">     0</i>
   <i name="CSHIFT">      0.10000000</i>
   <i name="OMEGAMAX">     -1.00000000</i>
   <i name="DEG_THRESHOLD">      0.00200000</i>
   <i name="RTIME">     -0.10000000</i>
   <i name="WPLASMAI">      0.00000000</i>
   <v name="DFIELD">      0.00000000      0.00000000      0.00000000</v>
   <v name="WPLASMA">      0.00000000      0.00000000      0.00000000      0.00000000      0.00000000      0.00000000      0.00000000      0.00000000      0.00000000</v>
  </separator>
  <separator name="orbital magnetization" >
   <i type="logical" name="NUCIND"> F  </i>
   <v name="MAGPOS">      0.00000000      0.00000000      0.00000000</v>
   <i type="logical" name="LNICSALL"> T  </i>
   <i type="logical" name="ORBITALMAG"> F  </i>
   <i type="logical" name="LMAGBLOCH"> F  </i>
   <i type="logical" name="LCHIMAG"> F  </i>
   <i type="logical" name="LGAUGE"> T  </i>
   <i type="int" name="MAGATOM">     0</i>
   <v name="MAGDIPOL">      0.00000000      0.00000000      0.00000000</v>
   <v name="AVECCONST">      0.00000000      0.00000000      0.00000000</v>
  </separator>
  <separator name="response functions" >
   <i type="logical" name="LADDER"> F  </i>
   <i type="logical" name="LRPAFORCE"> F  </i>
   <i type="logical" name="LFXC"> F  </i>
   <i type="logical" name="LHARTREE"> T  </i>
   <i type="int" name="IBSE">     0</i>
   <v type="int" name="KPOINT">    -1     0     0     0</v>
   <i type="logical" name="LTCTE"> F  </i>
   <i type="logical" name="LTETE"> F  </i>
   <i type="logical" name="LTRIPLET"> F  </i>
   <i type="logical" name="LFXCEPS"> F  </i>
   <i type="logical" name="LFXHEG"> F  </i>
   <i type="int" name="NATURALO">     2</i>
   <i type="logical" name="L2ORDER"> F  </i>
   <i type="logical" name="LMP2LT"> F  </i>
   <i type="logical" name="LUSEW"> F  </i>
   <i name="ENCUTGW">     -2.00000000</i>
   <i name="ENCUTGWSOFT">     -2.00000000</i>
   <i name="ENCUTLF">     -1.00000000</i>
   <i type="int" name="LMAXMP2">    -1</i>
   <i name="SCISSOR">      0.00000000</i>
   <i type="int" name="NOMEGA">     0</i>
   <i type="int" name="NOMEGAR">     0</i>
   <i type="int" name="NBANDSGW">    -1</i>
   <i type="int" name="NBANDSO">    -1</i>
   <i type="int" name="NBANDSV">    -1</i>
   <i type="int" name="NELM">   200</i>
   <i type="int" name="NELMHF">     1</i>
   <i type="int" name="DIM">     3</i>
   <i type="int" name="ANTIRES">     0</i>
   <i name="OMEGAMAX">    -30.00000000</i>
   <i name="OMEGAMIN">    -30.00000000</i>
   <i name="OMEGATL">   -200.00000000</i>
   <i type="int" name="OMEGAGRID">   140</i>
   <i name="CSHIFT">     -0.10000000</i>
   <i type="logical" name="SELFENERGY"> F  </i>
   <i type="logical" name="LSPECTRAL"> F  </i>
   <i type="logical" name="LSPECTRALGW"> F  </i>
   <i type="logical" name="LSINGLES"> F  </i>
   <i type="logical" name="LFERMIGW"> F  </i>
   <i type="logical" name="ODDONLYGW"> F  </i>
   <i type="logical" name="EVENONLYGW"> F  </i>
   <i type="int" name="NKREDLFX">     1</i>
   <i type="int" name="NKREDLFY">     1</i>
   <i type="int" name="NKREDLFZ">     1</i>
   <i type="int" name="MAXMEM">  2800</i>
   <i type="int" name="TELESCOPE">     0</i>
   <i type="int" name="TAUPAR">     1</i>
   <i type="int" name="OMEGAPAR">    -1</i>
   <i name="LAMBDA">      1.00000000</i>
  </separator>
  <separator name="External order field" >
   <i name="OFIELD_KAPPA">      0.00000000</i>
   <v name="OFIELD_K">      0.00000000      0.00000000      0.00000000</v>
   <i name="OFIELD_Q6_NEAR">      0.00000000</i>
   <i name="OFIELD_Q6_FAR">      0.00000000</i>
   <i name="OFIELD_A">      0.00000000</i>
  </separator>
  <separator name="solvation model" >
   <i type="logical" name="LSOL"> F  </i>
  </separator>
 </parameters>
 <atominfo>
  <atoms>     120 </atoms>
  <types>       4 </types>
  <array name="atoms" >
   <dimension dim="1">ion</dimension>
   <field type="string">element</field>
   <field type="int">atomtype</field>
   <set>
    <rc><c>C </c><c>   1</c></rc>
    <rc><c>C </c><c>   1</c></rc>
    <rc><c>C </c><c>   1</c></rc>
    <rc><c>C </c><c>   1</c></rc>
    <rc><c>C </c><c>   1</c></rc>
    <rc><c>C </c><c>   1</c></rc>
    <rc><c>C </c><c>   1</c></rc>
    <rc><c>C </c><c>   1</c></rc>
    <rc><c>C </c><c>   1</c></rc>
    <rc><c>C </c><c>   1</c></rc>
    <rc><c>C </c><c>   1</c></rc>
    <rc><c>C </c><c>   1</c></rc>
    <rc><c>C </c><c>   1</c></rc>
    <rc><c>C </c><c>   1</c></rc>
    <rc><c>C </c><c>   1</c></rc>
    <rc><c>C </c><c>   1</c></rc>
    <rc><c>C </c><c>   1</c></rc>
    <rc><c>C </c><c>   1</c></rc>
    <rc><c>C </c><c>   1</c></rc>
    <rc><c>C </c><c>   1</c></rc>
    <rc><c>C </c><c>   1</c></rc>
    <rc><c>C </c><c>   1</c></rc>
    <rc><c>C </c><c>   1</c></rc>
    <rc><c>C </c><c>   1</c></rc>
    <rc><c>C </c><c>   1</c></rc>
    <rc><c>C </c><c>   1</c></rc>
    <rc><c>C </c><c>   1</c></rc>
    <rc><c>C </c><c>   1</c></rc>
    <rc><c>C </c><c>   1</c></rc>
    <rc><c>C </c><c>   1</c></rc>
    <rc><c>C </c><c>   1</c></rc>
    <rc><c>C </c><c>   1</c></rc>
    <rc><c>C </c><c>   1</c></rc>
    <rc><c>C </c><c>   1</c></rc>
    <rc><c>C </c><c>   1</c></rc>
    <rc><c>C </c><c>   1</c></rc>
    <rc><c>C </c><c>   1</c></rc>
    <rc><c>C </c><c>   1</c></rc>
    <rc><c>C </c><c>   1</c></rc>
    <rc><c>C </c><c>   1</c></rc>
    <rc><c>C </c><c>   1</c></rc>
    <rc><c>C </c><c>   1</c></rc>
    <rc><c>C </c><c>   1</c></rc>
    <rc><c>C </c><c>   1</c></rc>
    <rc><c>C </c><c>   1</c></rc>
    <rc><c>C </c><c>   1</c></rc>
    <rc><c>C </c><c>   1</c></rc>
    <rc><c>C </c><c>   1</c></rc>
    <rc><c>C </c><c>   1</c></rc>
    <rc><c>C </c><c>   1</c></rc>
    <rc><c>C </c><c>   1</c></rc>
    <rc><c>C </c><c>   1</c></rc>
    <rc><c>C </c><c>   1</c></rc>
    <rc><c>C </c><c>   1</c></rc>
    <rc><c>C </c><c>   1</c></rc>
    <rc><c>C </c><c>   1</c></rc>
    <rc><c>C </c><c>   1</c></rc>
    <rc><c>C </c><c>   1</c></rc>
    <rc><c>C </c><c>   1</c></rc>
    <rc><c>C </c><c>   1</c></rc>
    <rc><c>C </c><c>   1</c></rc>
    <rc><c>C </c><c>   1</c></rc>
    <rc><c>C </c><c>   1</c></rc>
    <rc><c>C </c><c>   1</c></rc>
    <rc><c>C </c><c>   1</c></rc>
    <rc><c>C </c><c>   1</c></rc>
    <rc><c>H </c><c>   2</c></rc>
    <rc><c>H </c><c>   2</c></rc>
    <rc><c>H </c><c>   2</c></rc>
    <rc><c>H </c><c>   2</c></rc>
    <rc><c>H </c><c>   2</c></rc>
    <rc><c>H </c><c>   2</c></rc>
    <rc><c>H </c><c>   2</c></rc>
    <rc><c>H </c><c>   2</c></rc>
    <rc><c>H </c><c>   2</c></rc>
    <rc><c>H </c><c>   2</c></rc>
    <rc><c>H </c><c>   2</c></rc>
    <rc><c>H </c><c>   2</c></rc>
    <rc><c>H </c><c>   2</c></rc>
    <rc><c>H </c><c>   2</c></rc>
    <rc><c>H </c><c>   2</c></rc>
    <rc><c>H </c><c>   2</c></rc>
    <rc><c>H </c><c>   2</c></rc>
    <rc><c>H </c><c>   2</c></rc>
    <rc><c>H </c><c>   2</c></rc>
    <rc><c>H </c><c>   2</c></rc>
    <rc><c>H </c><c>   2</c></rc>
    <rc><c>H </c><c>   2</c></rc>
    <rc><c>H </c><c>   2</c></rc>
    <rc><c>H </c><c>   2</c></rc>
    <rc><c>H </c><c>   2</c></rc>
    <rc><c>H </c><c>   2</c></rc>
    <rc><c>H </c><c>   2</c></rc>
    <rc><c>H </c><c>   2</c></rc>
    <rc><c>H </c><c>   2</c></rc>
    <rc><c>H </c><c>   2</c></rc>
    <rc><c>H </c><c>   2</c></rc>
    <rc><c>H </c><c>   2</c></rc>
    <rc><c>H </c><c>   2</c></rc>
    <rc><c>H </c><c>   2</c></rc>
    <rc><c>H </c><c>   2</c></rc>
    <rc><c>H </c><c>   2</c></rc>
    <rc><c>O </c><c>   3</c></rc>
    <rc><c>O </c><c>   3</c></rc>
    <rc><c>O </c><c>   3</c></rc>
    <rc><c>O </c><c>   3</c></rc>
    <rc><c>O </c><c>   3</c></rc>
    <rc><c>O </c><c>   3</c></rc>
    <rc><c>O </c><c>   3</c></rc>
    <rc><c>O </c><c>   3</c></rc>
    <rc><c>O </c><c>   3</c></rc>
    <rc><c>O </c><c>   3</c></rc>
    <rc><c>O </c><c>   3</c></rc>
    <rc><c>O </c><c>   3</c></rc>
    <rc><c>N </c><c>   4</c></rc>
    <rc><c>N </c><c>   4</c></rc>
    <rc><c>N </c><c>   4</c></rc>
    <rc><c>N </c><c>   4</c></rc>
    <rc><c>N </c><c>   4</c></rc>
    <rc><c>N </c><c>   4</c></rc>
   </set>
  </array>
  <array name="atomtypes" >
   <dimension dim="1">type</dimension>
   <field type="int">atomspertype</field>
   <field type="string">element</field>
   <field>mass</field>
   <field>valence</field>
   <field type="string">pseudopotential</field>
   <set>
    <rc><c>  66</c><c>C </c><c>     12.01100000</c><c>      4.00000000</c><c>  PAW_PBE C 08Apr2002                   </c></rc>
    <rc><c>  36</c><c>H </c><c>      1.00000000</c><c>      1.00000000</c><c>  PAW_PBE H 15Jun2001                   </c></rc>
    <rc><c>  12</c><c>O </c><c>     16.00000000</c><c>      6.00000000</c><c>  PAW_PBE O 08Apr2002                   </c></rc>
    <rc><c>   6</c><c>N </c><c>     14.00100000</c><c>      5.00000000</c><c>  PAW_PBE N 08Apr2002                   </c></rc>
   </set>
  </array>
 </atominfo>
 <structure name="initialpos" >
  <crystal>
   <varray name="basis" >
    <v>      29.64765009       0.00229654       0.00000000 </v>
    <v>     -14.82173537      25.68345444       0.00000000 </v>
    <v>       0.00000000       0.00000000      20.00000000 </v>
   </varray>
   <i name="volume">  15229.76218568 </i>
   <varray name="rec_basis" >
    <v>       0.03372798       0.01946417       0.00000000 </v>
    <v>      -0.00000302       0.03893383       0.00000000 </v>
    <v>       0.00000000       0.00000000       0.05000000 </v>
   </varray>
  </crystal>
  <varray name="positions" >
   <v>       0.06257008       0.53088265       0.50642864 </v>
   <v>       0.03072414       0.50729627       0.44956442 </v>
   <v>       0.05162036       0.50925602       0.37979198 </v>
   <v>       0.14774686       0.60308452       0.54618209 </v>
   <v>       0.12003489       0.55884937       0.50552178 </v>
   <v>       0.14804556       0.54187487       0.46630445 </v>
   <v>       0.28772739       0.64227222       0.50720505 </v>
   <v>       0.31550380       0.69687792       0.50716117 </v>
   <v>       0.37012361       0.72466635       0.50730688 </v>
   <v>       0.39697050       0.69689055       0.50754017 </v>
   <v>       0.37015604       0.64227486       0.50750895 </v>
   <v>       0.31553905       0.61544703       0.50741334 </v>
   <v>       0.39892826       0.78225422       0.50699861 </v>
   <v>       0.38226727       0.81015349       0.46701789 </v>
   <v>       0.40961628       0.86431455       0.46595974 </v>
   <v>       0.45432891       0.89229616       0.50563974 </v>
   <v>       0.47052880       0.86460298       0.54685847 </v>
   <v>       0.44354744       0.81048818       0.54690448 </v>
   <v>       0.23012795       0.61353085       0.50684197 </v>
   <v>       0.20187200       0.63021026       0.54623600 </v>
   <v>       0.20221962       0.56872678       0.46731005 </v>
   <v>       0.39897222       0.61348070       0.50733093 </v>
   <v>       0.38255366       0.56882878       0.54717262 </v>
   <v>       0.40975365       0.54189316       0.54723192 </v>
   <v>       0.45374700       0.55815315       0.50618421 </v>
   <v>       0.47048648       0.60288179       0.46653524 </v>
   <v>       0.44360284       0.63018303       0.46748011 </v>
   <v>       0.73088880       0.36432130       0.51198780 </v>
   <v>       0.70368085       0.30970961       0.51192466 </v>
   <v>       0.64906758       0.28134904       0.51169401 </v>
   <v>       0.62164236       0.30855046       0.51151875 </v>
   <v>       0.64788755       0.36314855       0.51165368 </v>
   <v>       0.70250135       0.39055529       0.51179081 </v>
   <v>       0.62085804       0.22377145       0.51191900 </v>
   <v>       0.63803412       0.19627178       0.55182228 </v>
   <v>       0.61125611       0.14210712       0.55284576 </v>
   <v>       0.56658424       0.11371342       0.51323236 </v>
   <v>       0.54984778       0.14102206       0.47212926 </v>
   <v>       0.57627413       0.19513624       0.47209282 </v>
   <v>       0.78847926       0.39373129       0.51242366 </v>
   <v>       0.81723952       0.37756011       0.47320851 </v>
   <v>       0.87135079       0.40536846       0.47324269 </v>
   <v>       0.89856344       0.44981943       0.51368078 </v>
   <v>       0.87004854       0.46627583       0.55275196 </v>
   <v>       0.81587840       0.43872207       0.55177890 </v>
   <v>       0.61852163       0.39137684       0.51199878 </v>
   <v>       0.63442785       0.43596479       0.47220754 </v>
   <v>       0.60674873       0.46240454       0.47237847 </v>
   <v>       0.56278435       0.44569695       0.51361954 </v>
   <v>       0.54655932       0.40103785       0.55322170 </v>
   <v>       0.57392064       0.37421954       0.55202780 </v>
   <v>       0.52883595       0.02453330       0.56952968 </v>
   <v>       0.53757101       0.05624093       0.51238791 </v>
   <v>       0.54696018       0.04561445       0.63944281 </v>
   <v>       0.51126965       0.48336043       0.56994387 </v>
   <v>       0.53431182       0.47470115       0.51280794 </v>
   <v>       0.51381907       0.46487506       0.63978235 </v>
   <v>       0.98788716       0.50234568       0.56938672 </v>
   <v>       0.95603770       0.47842142       0.51263477 </v>
   <v>       0.96701570       0.50110455       0.63896416 </v>
   <v>       0.48378871       0.94974762       0.50649052 </v>
   <v>       0.49262252       0.98145812       0.44933332 </v>
   <v>       0.47443831       0.96045979       0.37940741 </v>
   <v>       0.48169941       0.52862049       0.50701202 </v>
   <v>       0.50447110       0.51969038       0.44980311 </v>
   <v>       0.50140338       0.53779740       0.37990800 </v>
   <v>       0.08537059       0.58430871       0.38520675 </v>
   <v>       0.12610330       0.61551781       0.57800716 </v>
   <v>       0.12757408       0.50696711       0.43555054 </v>
   <v>       0.22275303       0.66422201       0.57842251 </v>
   <v>       0.22328333       0.55523510       0.43607448 </v>
   <v>       0.34869158       0.55587551       0.57959756 </v>
   <v>       0.39754850       0.50804981       0.57940438 </v>
   <v>       0.45690087       0.66454224       0.43593374 </v>
   <v>       0.50522087       0.61711274       0.43546880 </v>
   <v>       0.45642232       0.78958821       0.57947088 </v>
   <v>       0.50433730       0.88625921       0.57909033 </v>
   <v>       0.39541334       0.88481172       0.43482790 </v>
   <v>       0.34789095       0.78909405       0.43549895 </v>
   <v>       0.29425304       0.71811978       0.50697966 </v>
   <v>       0.29431742       0.57296465       0.50745454 </v>
   <v>       0.43946305       0.71814417       0.50769071 </v>
   <v>       0.89338903       0.39332583       0.44156455 </v>
   <v>       0.79674418       0.34340836       0.44116622 </v>
   <v>       0.89008484       0.50131333       0.58334769 </v>
   <v>       0.79442687       0.45183521       0.58287969 </v>
   <v>       0.66825641       0.44923748       0.43964078 </v>
   <v>       0.61852297       0.49617776       0.44020927 </v>
   <v>       0.56102784       0.33988919       0.58351032 </v>
   <v>       0.51184519       0.38645237       0.58439989 </v>
   <v>       0.56296515       0.21571738       0.43961863 </v>
   <v>       0.51604628       0.11907742       0.43997878 </v>
   <v>       0.62584936       0.12194433       0.58395671 </v>
   <v>       0.67235302       0.21766300       0.58335164 </v>
   <v>       0.72537826       0.28891655       0.51209856 </v>
   <v>       0.72325915       0.43303518       0.51184260 </v>
   <v>       0.57915369       0.28687523       0.51135929 </v>
   <v>       0.50640280       0.08008391       0.63183609 </v>
   <v>       0.58880931       0.50686893       0.63388720 </v>
   <v>       0.93357241       0.42601638       0.63518073 </v>
   <v>       0.51606039       0.92709909       0.38613377 </v>
   <v>       0.42643112       0.49668416       0.38732614 </v>
   <v>       0.04256117       0.47063794       0.34845971 </v>
   <v>       0.08089477       0.55768027       0.35281939 </v>
   <v>       0.57584336       0.03630047       0.67193672 </v>
   <v>       0.52783541       0.07533686       0.66512532 </v>
   <v>       0.47542416       0.43524582       0.67142392 </v>
   <v>       0.56243240       0.48450653       0.66641086 </v>
   <v>       0.97596577       0.54008754       0.66932253 </v>
   <v>       0.93791736       0.45300808       0.66688429 </v>
   <v>       0.44507696       0.96936406       0.34733213 </v>
   <v>       0.49408608       0.93135645       0.35320923 </v>
   <v>       0.53954170       0.56694037       0.34750271 </v>
   <v>       0.45254847       0.51839639       0.35414557 </v>
   <v>       0.03973628       0.52804442       0.56564673 </v>
   <v>       0.50298163       0.97266681       0.56590325 </v>
   <v>       0.48536891       0.50932920       0.56639446 </v>
   <v>       0.51853064       0.03329643       0.45295435 </v>
   <v>       0.53040892       0.49374721       0.45335832 </v>
   <v>       0.97887548       0.48143577       0.45335877 </v>
  </varray>
 </structure>
 <calculation>
  <scstep>
   <time name="dav">  705.77  713.23</time>
   <time name="total">  706.03  713.51</time>
   <energy>
    <i name="alphaZ">     48.84064620 </i>
    <i name="ewald">  49890.67694561 </i>
    <i name="hartreedc"> -63784.74212860 </i>
    <i name="XCdc">   1464.15469131 </i>
    <i name="pawpsdc">  36753.01104047 </i>
    <i name="pawaedc"> -36830.83691008 </i>
    <i name="eentropy">     -0.00000000 </i>
    <i name="bandstr">  -5332.71089695 </i>
    <i name="atom">  16936.79361787 </i>
    <i name="e_fr_energy">   -854.81299417 </i>
    <i name="e_wo_entrp">   -854.81299417 </i>
    <i name="e_0_energy">   -854.81299417 </i>
   </energy>
  </scstep>
  <scstep>
   <time name="dav">  771.63  779.77</time>
   <time name="total">  771.63  779.77</time>
   <energy>
    <i name="e_fr_energy">   -855.31954513 </i>
    <i name="e_wo_entrp">   -855.31954513 </i>
    <i name="e_0_energy">   -855.31954513 </i>
   </energy>
  </scstep>
  <scstep>
   <time name="dav">  869.17  878.31</time>
   <time name="total">  869.18  878.32</time>
   <energy>
    <i name="e_fr_energy">   -855.33328811 </i>
    <i name="e_wo_entrp">   -855.33328811 </i>
    <i name="e_0_energy">   -855.33328811 </i>
   </energy>
  </scstep>
  <scstep>
   <time name="dav">  765.19  773.19</time>
   <time name="total">  765.19  773.20</time>
   <energy>
    <i name="e_fr_energy">   -855.33356620 </i>
    <i name="e_wo_entrp">   -855.33356620 </i>
    <i name="e_0_energy">   -855.33356620 </i>
   </energy>
  </scstep>
  <scstep>
   <time name="dav">  754.86  762.68</time>
   <time name="total">  754.86  762.68</time>
   <energy>
    <i name="e_fr_energy">   -855.33358272 </i>
    <i name="e_wo_entrp">   -855.33358272 </i>
    <i name="e_0_energy">   -855.33358272 </i>
   </energy>
  </scstep>
  <scstep>
   <time name="dav">  593.50  599.65</time>
   <time name="total">  593.51  599.66</time>
   <energy>
    <i name="alphaZ">     48.84064620 </i>
    <i name="ewald">  49890.67694561 </i>
    <i name="hartreedc"> -63784.74212860 </i>
    <i name="XCdc">   1464.15469131 </i>
    <i name="pawpsdc">  36753.01104047 </i>
    <i name="pawaedc"> -36830.83691008 </i>
    <i name="eentropy">     -0.00000000 </i>
    <i name="bandstr">  -5333.23148591 </i>
    <i name="atom">  16936.79361787 </i>
    <i name="e_fr_energy">   -855.33358312 </i>
    <i name="e_wo_entrp">   -855.33358312 </i>
    <i name="e_0_energy">   -855.33358312 </i>
   </energy>
  </scstep>
  <structure>
   <crystal>
    <varray name="basis" >
     <v>      29.64765009       0.00229654       0.00000000 </v>
     <v>     -14.82173537      25.68345444       0.00000000 </v>
     <v>       0.00000000       0.00000000      20.00000000 </v>
    </varray>
    <i name="volume">  15229.76218568 </i>
    <varray name="rec_basis" >
     <v>       0.03372798       0.01946417       0.00000000 </v>
     <v>      -0.00000302       0.03893383       0.00000000 </v>
     <v>       0.00000000       0.00000000       0.05000000 </v>
    </varray>
   </crystal>
   <varray name="positions" >
    <v>       0.06257008       0.53088265       0.50642864 </v>
    <v>       0.03072414       0.50729627       0.44956442 </v>
    <v>       0.05162036       0.50925602       0.37979198 </v>
    <v>       0.14774686       0.60308452       0.54618209 </v>
    <v>       0.12003489       0.55884937       0.50552178 </v>
    <v>       0.14804556       0.54187487       0.46630445 </v>
    <v>       0.28772739       0.64227222       0.50720505 </v>
    <v>       0.31550380       0.69687792       0.50716117 </v>
    <v>       0.37012361       0.72466635       0.50730688 </v>
    <v>       0.39697050       0.69689055       0.50754017 </v>
    <v>       0.37015604       0.64227486       0.50750895 </v>
    <v>       0.31553905       0.61544703       0.50741334 </v>
    <v>       0.39892826       0.78225422       0.50699861 </v>
    <v>       0.38226727       0.81015349       0.46701789 </v>
    <v>       0.40961628       0.86431455       0.46595974 </v>
    <v>       0.45432891       0.89229616       0.50563974 </v>
    <v>       0.47052880       0.86460298       0.54685847 </v>
    <v>       0.44354744       0.81048818       0.54690448 </v>
    <v>       0.23012795       0.61353085       0.50684197 </v>
    <v>       0.20187200       0.63021026       0.54623600 </v>
    <v>       0.20221962       0.56872678       0.46731005 </v>
    <v>       0.39897222       0.61348070       0.50733093 </v>
    <v>       0.38255366       0.56882878       0.54717262 </v>
    <v>       0.40975365       0.54189316       0.54723192 </v>
    <v>       0.45374700       0.55815315       0.50618421 </v>
    <v>       0.47048648       0.60288179       0.46653524 </v>
    <v>       0.44360284       0.63018303       0.46748011 </v>
    <v>       0.73088880       0.36432130       0.51198780 </v>
    <v>       0.70368085       0.30970961       0.51192466 </v>
    <v>       0.64906758       0.28134904       0.51169401 </v>
    <v>       0.62164236       0.30855046       0.51151875 </v>
    <v>       0.64788755       0.36314855       0.51165368 </v>
    <v>       0.70250135       0.39055529       0.51179081 </v>
    <v>       0.62085804       0.22377145       0.51191900 </v>
    <v>       0.63803412       0.19627178       0.55182228 </v>
    <v>       0.61125611       0.14210712       0.55284576 </v>
    <v>       0.56658424       0.11371342       0.51323236 </v>
    <v>       0.54984778       0.14102206       0.47212926 </v>
    <v>       0.57627413       0.19513624       0.47209282 </v>
    <v>       0.78847926       0.39373129       0.51242366 </v>
    <v>       0.81723952       0.37756011       0.47320851 </v>
    <v>       0.87135079       0.40536846       0.47324269 </v>
    <v>       0.89856344       0.44981943       0.51368078 </v>
    <v>       0.87004854       0.46627583       0.55275196 </v>
    <v>       0.81587840       0.43872207       0.55177890 </v>
    <v>       0.61852163       0.39137684       0.51199878 </v>
    <v>       0.63442785       0.43596479       0.47220754 </v>
    <v>       0.60674873       0.46240454       0.47237847 </v>
    <v>       0.56278435       0.44569695       0.51361954 </v>
    <v>       0.54655932       0.40103785       0.55322170 </v>
    <v>       0.57392064       0.37421954       0.55202780 </v>
    <v>       0.52883595       0.02453330       0.56952968 </v>
    <v>       0.53757101       0.05624093       0.51238791 </v>
    <v>       0.54696018       0.04561445       0.63944281 </v>
    <v>       0.51126965       0.48336043       0.56994387 </v>
    <v>       0.53431182       0.47470115       0.51280794 </v>
    <v>       0.51381907       0.46487506       0.63978235 </v>
    <v>       0.98788716       0.50234568       0.56938672 </v>
    <v>       0.95603770       0.47842142       0.51263477 </v>
    <v>       0.96701570       0.50110455       0.63896416 </v>
    <v>       0.48378871       0.94974762       0.50649052 </v>
    <v>       0.49262252       0.98145812       0.44933332 </v>
    <v>       0.47443831       0.96045979       0.37940741 </v>
    <v>       0.48169941       0.52862049       0.50701202 </v>
    <v>       0.50447110       0.51969038       0.44980311 </v>
    <v>       0.50140338       0.53779740       0.37990800 </v>
    <v>       0.08537059       0.58430871       0.38520675 </v>
    <v>       0.12610330       0.61551781       0.57800716 </v>
    <v>       0.12757408       0.50696711       0.43555054 </v>
    <v>       0.22275303       0.66422201       0.57842251 </v>
    <v>       0.22328333       0.55523510       0.43607448 </v>
    <v>       0.34869158       0.55587551       0.57959756 </v>
    <v>       0.39754850       0.50804981       0.57940438 </v>
    <v>       0.45690087       0.66454224       0.43593374 </v>
    <v>       0.50522087       0.61711274       0.43546880 </v>
    <v>       0.45642232       0.78958821       0.57947088 </v>
    <v>       0.50433730       0.88625921       0.57909033 </v>
    <v>       0.39541334       0.88481172       0.43482790 </v>
    <v>       0.34789095       0.78909405       0.43549895 </v>
    <v>       0.29425304       0.71811978       0.50697966 </v>
    <v>       0.29431742       0.57296465       0.50745454 </v>
    <v>       0.43946305       0.71814417       0.50769071 </v>
    <v>       0.89338903       0.39332583       0.44156455 </v>
    <v>       0.79674418       0.34340836       0.44116622 </v>
    <v>       0.89008484       0.50131333       0.58334769 </v>
    <v>       0.79442687       0.45183521       0.58287969 </v>
    <v>       0.66825641       0.44923748       0.43964078 </v>
    <v>       0.61852297       0.49617776       0.44020927 </v>
    <v>       0.56102784       0.33988919       0.58351032 </v>
    <v>       0.51184519       0.38645237       0.58439989 </v>
    <v>       0.56296515       0.21571738       0.43961863 </v>
    <v>       0.51604628       0.11907742       0.43997878 </v>
    <v>       0.62584936       0.12194433       0.58395671 </v>
    <v>       0.67235302       0.21766300       0.58335164 </v>
    <v>       0.72537826       0.28891655       0.51209856 </v>
    <v>       0.72325915       0.43303518       0.51184260 </v>
    <v>       0.57915369       0.28687523       0.51135929 </v>
    <v>       0.50640280       0.08008391       0.63183609 </v>
    <v>       0.58880931       0.50686893       0.63388720 </v>
    <v>       0.93357241       0.42601638       0.63518073 </v>
    <v>       0.51606039       0.92709909       0.38613377 </v>
    <v>       0.42643112       0.49668416       0.38732614 </v>
    <v>       0.04256117       0.47063794       0.34845971 </v>
    <v>       0.08089477       0.55768027       0.35281939 </v>
    <v>       0.57584336       0.03630047       0.67193672 </v>
    <v>       0.52783541       0.07533686       0.66512532 </v>
    <v>       0.47542416       0.43524582       0.67142392 </v>
    <v>       0.56243240       0.48450653       0.66641086 </v>
    <v>       0.97596577       0.54008754       0.66932253 </v>
    <v>       0.93791736       0.45300808       0.66688429 </v>
    <v>       0.44507696       0.96936406       0.34733213 </v>
    <v>       0.49408608       0.93135645       0.35320923 </v>
    <v>       0.53954170       0.56694037       0.34750271 </v>
    <v>       0.45254847       0.51839639       0.35414557 </v>
    <v>       0.03973628       0.52804442       0.56564673 </v>
    <v>       0.50298163       0.97266681       0.56590325 </v>
    <v>       0.48536891       0.50932920       0.56639446 </v>
    <v>       0.51853064       0.03329643       0.45295435 </v>
    <v>       0.53040892       0.49374721       0.45335832 </v>
    <v>       0.97887548       0.48143577       0.45335877 </v>
   </varray>
  </structure>
  <varray name="forces" >
   <v>      -0.00089981      -0.00134901      -0.00005824 </v>
   <v>      -0.00081940      -0.00110225      -0.00018805 </v>
   <v>       0.00211543      -0.00074885      -0.00157325 </v>
   <v>      -0.00105436       0.00035641      -0.00082471 </v>
   <v>       0.00242532      -0.00022026       0.00118488 </v>
   <v>       0.00340656      -0.00101023      -0.00233517 </v>
   <v>       0.00041108      -0.00155881      -0.00009534 </v>
   <v>       0.00173725       0.00011582       0.00009832 </v>
   <v>      -0.00036455       0.00071901       0.00020964 </v>
   <v>       0.00245783      -0.00044355      -0.00098925 </v>
   <v>       0.00129055       0.00131924       0.00050495 </v>
   <v>       0.00062351      -0.00113786       0.00041256 </v>
   <v>      -0.00079823       0.00074051       0.00116687 </v>
   <v>       0.00211533      -0.00223229       0.00092140 </v>
   <v>      -0.00058599       0.00178493      -0.00107983 </v>
   <v>       0.00034477      -0.00237637       0.00153129 </v>
   <v>      -0.00115496      -0.00022614      -0.00157383 </v>
   <v>       0.00010027       0.00085701      -0.00094904 </v>
   <v>      -0.00143411      -0.00017091       0.00197376 </v>
   <v>      -0.00036725      -0.00039392      -0.00089162 </v>
   <v>      -0.00018036      -0.00228749      -0.00200247 </v>
   <v>       0.00019880      -0.00084559       0.00059303 </v>
   <v>      -0.00199750       0.00033096       0.00077798 </v>
   <v>       0.00236447      -0.00097962      -0.00081433 </v>
   <v>      -0.00031291      -0.00226467       0.00012867 </v>
   <v>      -0.00070930       0.00004928      -0.00064405 </v>
   <v>      -0.00094857       0.00013350       0.00030691 </v>
   <v>      -0.00093060      -0.00139699       0.00008619 </v>
   <v>       0.00037425       0.00110752       0.00032114 </v>
   <v>       0.00289151       0.00126995      -0.00000824 </v>
   <v>      -0.00068106       0.00064416       0.00003630 </v>
   <v>       0.00182101       0.00166721       0.00062845 </v>
   <v>      -0.00117483       0.00074553      -0.00015883 </v>
   <v>       0.00119898      -0.00305187       0.00069271 </v>
   <v>       0.00083614       0.00082333       0.00104329 </v>
   <v>       0.00205900       0.00040987       0.00108581 </v>
   <v>      -0.00012616       0.00164779      -0.00096800 </v>
   <v>      -0.00075872       0.00140919      -0.00121714 </v>
   <v>      -0.00088531      -0.00116482      -0.00089316 </v>
   <v>       0.00170648      -0.00302475      -0.00206354 </v>
   <v>      -0.00129096      -0.00041433       0.00124764 </v>
   <v>       0.00172778       0.00222068       0.00062633 </v>
   <v>       0.00068556      -0.00167426      -0.00182028 </v>
   <v>      -0.00134089      -0.00046676      -0.00114222 </v>
   <v>      -0.00115074       0.00081344       0.00018394 </v>
   <v>      -0.00077772       0.00088216      -0.00062175 </v>
   <v>       0.00300501      -0.00121581      -0.00002421 </v>
   <v>      -0.00250154       0.00206721       0.00015887 </v>
   <v>       0.00082497       0.00016666      -0.00076800 </v>
   <v>      -0.00072160       0.00010174       0.00099393 </v>
   <v>       0.00020601      -0.00096640       0.00095871 </v>
   <v>       0.00062070      -0.00157146       0.00086713 </v>
   <v>       0.00094945      -0.00180432       0.00516718 </v>
   <v>      -0.00228818      -0.00005611      -0.00563734 </v>
   <v>       0.00103800      -0.00035688      -0.00042747 </v>
   <v>      -0.00383690      -0.00078375      -0.00222626 </v>
   <v>       0.00180651       0.00187434      -0.00375311 </v>
   <v>      -0.00451295       0.00029627       0.00011744 </v>
   <v>       0.00477228       0.00303549      -0.00081718 </v>
   <v>       0.00147897      -0.00221315      -0.00249862 </v>
   <v>      -0.00088246       0.00063172       0.00267356 </v>
   <v>      -0.00033722       0.00065174      -0.00148585 </v>
   <v>       0.00001276       0.00001251      -0.00012337 </v>
   <v>       0.00050681      -0.00143764       0.00238949 </v>
   <v>      -0.00311568       0.00014786      -0.00342685 </v>
   <v>       0.00432975       0.00207104       0.00053948 </v>
   <v>      -0.00305626       0.00257264       0.00196256 </v>
   <v>      -0.00031213      -0.00074352      -0.00155686 </v>
   <v>       0.00155875       0.00015853       0.00033265 </v>
   <v>      -0.00076076      -0.00224524      -0.00094823 </v>
   <v>      -0.00170750       0.00064035       0.00299797 </v>
   <v>      -0.00083423       0.00114186       0.00077020 </v>
   <v>      -0.00116609      -0.00064868       0.00048890 </v>
   <v>       0.00108240      -0.00050202       0.00188509 </v>
   <v>      -0.00035285      -0.00099279       0.00081974 </v>
   <v>       0.00044622      -0.00022241      -0.00023714 </v>
   <v>       0.00024127      -0.00088785       0.00001500 </v>
   <v>      -0.00063809      -0.00072604       0.00002338 </v>
   <v>       0.00029773      -0.00016191      -0.00103616 </v>
   <v>      -0.00246004       0.00123182       0.00034533 </v>
   <v>      -0.00018863       0.00124501       0.00040613 </v>
   <v>      -0.00055078      -0.00092384       0.00015414 </v>
   <v>      -0.00088005       0.00129397       0.00152710 </v>
   <v>       0.00088396      -0.00115147       0.00049705 </v>
   <v>      -0.00086972       0.00252220       0.00010539 </v>
   <v>      -0.00218124       0.00143572       0.00059888 </v>
   <v>       0.00066981       0.00018353      -0.00084160 </v>
   <v>       0.00026376      -0.00087147       0.00125906 </v>
   <v>      -0.00066201       0.00031281      -0.00091639 </v>
   <v>       0.00038674       0.00045307      -0.00015806 </v>
   <v>       0.00109454      -0.00108882       0.00070446 </v>
   <v>       0.00169389       0.00151985       0.00053741 </v>
   <v>       0.00030848      -0.00010130      -0.00104726 </v>
   <v>      -0.00163559      -0.00308420      -0.00189532 </v>
   <v>       0.00072453      -0.00050310      -0.00004760 </v>
   <v>       0.00013746      -0.00157434      -0.00059804 </v>
   <v>      -0.00095798      -0.00093001       0.00005421 </v>
   <v>       0.00033457      -0.00157837       0.00154510 </v>
   <v>      -0.00044699      -0.00120328      -0.00290544 </v>
   <v>       0.00129218       0.00300732       0.00066914 </v>
   <v>      -0.00052969       0.00145643      -0.00131389 </v>
   <v>       0.00050202      -0.00051309      -0.00080764 </v>
   <v>      -0.00081402       0.00093454       0.00558569 </v>
   <v>       0.00363943      -0.00235859      -0.00422167 </v>
   <v>       0.00578076      -0.00066741       0.00029689 </v>
   <v>      -0.00034091      -0.00079587       0.00022647 </v>
   <v>      -0.00108244      -0.00339123       0.00084349 </v>
   <v>      -0.00412295      -0.00212923       0.00111417 </v>
   <v>      -0.00517658       0.00625381       0.00018704 </v>
   <v>      -0.00320508       0.00227885       0.00176750 </v>
   <v>       0.00075943      -0.00040309       0.00083531 </v>
   <v>      -0.00101860       0.00018600       0.00185217 </v>
   <v>      -0.00010815       0.00179025       0.00404090 </v>
   <v>       0.00258973       0.00194061       0.00038008 </v>
   <v>      -0.00501231       0.00658605      -0.00060818 </v>
   <v>       0.00034278       0.00094541      -0.00283759 </v>
   <v>      -0.00113058       0.00554831       0.00129566 </v>
   <v>       0.00083559      -0.00062365      -0.00413448 </v>
   <v>       0.00599784      -0.00418468       0.00213066 </v>
   <v>      -0.00316395      -0.00058840       0.00232932 </v>
  </varray>
  <varray name="stress" >
   <v>       0.00275832      -0.00158553      -0.00421425 </v>
   <v>      -0.00158552       0.00062232      -0.00272758 </v>
   <v>      -0.00421425      -0.00272758      -0.18654861 </v>
  </varray>
  <energy>
   <i name="e_fr_energy">   -857.92457487 </i>
   <i name="e_wo_entrp">   -857.92457487 </i>
   <i name="e_0_energy">     -0.00000000 </i>
  </energy>
  <time name="totalsc"> 5251.39 5308.40</time>
  <eigenvalues>
   <array>
    <dimension dim="1">band</dimension>
    <dimension dim="2">kpoint</dimension>
    <dimension dim="3">spin</dimension>
    <field>eigene</field>
    <field>occ</field>
    <set>
     <set comment="spin 1">
      <set comment="kpoint 1">
       <r>  -27.7283    1.0000 </r>
       <r>  -27.7255    1.0000 </r>
       <r>  -27.7216    1.0000 </r>
       <r>  -27.7169    1.0000 </r>
       <r>  -27.7130    1.0000 </r>
       <r>  -27.7088    1.0000 </r>
       <r>  -25.6682    1.0000 </r>
       <r>  -25.6673    1.0000 </r>
       <r>  -25.6633    1.0000 </r>
       <r>  -25.6547    1.0000 </r>
       <r>  -25.6536    1.0000 </r>
       <r>  -25.6507    1.0000 </r>
       <r>  -25.0559    1.0000 </r>
       <r>  -25.0550    1.0000 </r>
       <r>  -25.0546    1.0000 </r>
       <r>  -23.2171    1.0000 </r>
       <r>  -23.2169    1.0000 </r>
       <r>  -23.2163    1.0000 </r>
       <r>  -22.1255    1.0000 </r>
       <r>  -22.1157    1.0000 </r>
       <r>  -21.8009    1.0000 </r>
       <r>  -21.7997    1.0000 </r>
       <r>  -21.7227    1.0000 </r>
       <r>  -21.7215    1.0000 </r>
       <r>  -21.4526    1.0000 </r>
       <r>  -21.2936    1.0000 </r>
       <r>  -20.6744    1.0000 </r>
       <r>  -20.6737    1.0000 </r>
       <r>  -20.3589    1.0000 </r>
       <r>  -20.0031    1.0000 </r>
       <r>  -20.0022    1.0000 </r>
       <r>  -19.4303    1.0000 </r>
       <r>  -19.4298    1.0000 </r>
       <r>  -19.2079    1.0000 </r>
       <r>  -18.7883    1.0000 </r>
       <r>  -18.7872    1.0000 </r>
       <r>  -18.7632    1.0000 </r>
       <r>  -18.7411    1.0000 </r>
       <r>  -18.7403    1.0000 </r>
       <r>  -18.7312    1.0000 </r>
       <r>  -18.4155    1.0000 </r>
       <r>  -18.4149    1.0000 </r>
       <r>  -18.3639    1.0000 </r>
       <r>  -17.8084    1.0000 </r>
       <r>  -17.8080    1.0000 </r>
       <r>  -17.7230    1.0000 </r>
       <r>  -17.7143    1.0000 </r>
       <r>  -17.7139    1.0000 </r>
       <r>  -16.8926    1.0000 </r>
       <r>  -16.8124    1.0000 </r>
       <r>  -16.8120    1.0000 </r>
       <r>  -16.0008    1.0000 </r>
       <r>  -16.0002    1.0000 </r>
       <r>  -15.7707    1.0000 </r>
       <r>  -15.6690    1.0000 </r>
       <r>  -15.6673    1.0000 </r>
       <r>  -15.5685    1.0000 </r>
       <r>  -15.5659    1.0000 </r>
       <r>  -15.4913    1.0000 </r>
       <r>  -15.3813    1.0000 </r>
       <r>  -15.3557    1.0000 </r>
       <r>  -15.3533    1.0000 </r>
       <r>  -15.2583    1.0000 </r>
       <r>  -15.1905    1.0000 </r>
       <r>  -15.1831    1.0000 </r>
       <r>  -15.1810    1.0000 </r>
       <r>  -14.9887    1.0000 </r>
       <r>  -14.9803    1.0000 </r>
       <r>  -14.9778    1.0000 </r>
       <r>  -14.3242    1.0000 </r>
       <r>  -14.3229    1.0000 </r>
       <r>  -14.2369    1.0000 </r>
       <r>  -14.2358    1.0000 </r>
       <r>  -13.9498    1.0000 </r>
       <r>  -13.9105    1.0000 </r>
       <r>  -13.9096    1.0000 </r>
       <r>  -13.8370    1.0000 </r>
       <r>  -13.8165    1.0000 </r>
       <r>  -13.8159    1.0000 </r>
       <r>  -13.6184    1.0000 </r>
       <r>  -13.5551    1.0000 </r>
       <r>  -13.5531    1.0000 </r>
       <r>  -13.4066    1.0000 </r>
       <r>  -13.2285    1.0000 </r>
       <r>  -12.7384    1.0000 </r>
       <r>  -12.7372    1.0000 </r>
       <r>  -12.2588    1.0000 </r>
       <r>  -12.2017    1.0000 </r>
       <r>  -12.2012    1.0000 </r>
       <r>  -12.1109    1.0000 </r>
       <r>  -12.0373    1.0000 </r>
       <r>  -11.9920    1.0000 </r>
       <r>  -11.9179    1.0000 </r>
       <r>  -11.7415    1.0000 </r>
       <r>  -11.7186    1.0000 </r>
       <r>  -11.7167    1.0000 </r>
       <r>  -11.4811    1.0000 </r>
       <r>  -11.4783    1.0000 </r>
       <r>  -11.4730    1.0000 </r>
       <r>  -11.3602    1.0000 </r>
       <r>  -11.3590    1.0000 </r>
       <r>  -11.2748    1.0000 </r>
       <r>  -11.2715    1.0000 </r>
       <r>  -11.0746    1.0000 </r>
       <r>  -11.0737    1.0000 </r>
       <r>  -11.0198    1.0000 </r>
       <r>  -10.9317    1.0000 </r>
       <r>  -10.9298    1.0000 </r>
       <r>  -10.9271    1.0000 </r>
       <r>  -10.9072    1.0000 </r>
       <r>  -10.7726    1.0000 </r>
       <r>  -10.7367    1.0000 </r>
       <r>  -10.7061    1.0000 </r>
       <r>  -10.7046    1.0000 </r>
       <r>  -10.6833    1.0000 </r>
       <r>  -10.6806    1.0000 </r>
       <r>  -10.6203    1.0000 </r>
       <r>  -10.6191    1.0000 </r>
       <r>  -10.6065    1.0000 </r>
       <r>  -10.5949    1.0000 </r>
       <r>  -10.5942    1.0000 </r>
       <r>  -10.5931    1.0000 </r>
       <r>  -10.4542    1.0000 </r>
       <r>  -10.4493    1.0000 </r>
       <r>  -10.4491    1.0000 </r>
       <r>  -10.3666    1.0000 </r>
       <r>  -10.3483    1.0000 </r>
       <r>  -10.3458    1.0000 </r>
       <r>  -10.3425    1.0000 </r>
       <r>  -10.3296    1.0000 </r>
       <r>  -10.3271    1.0000 </r>
       <r>   -9.8139    1.0000 </r>
       <r>   -9.7786    1.0000 </r>
       <r>   -9.7762    1.0000 </r>
       <r>   -9.6311    1.0000 </r>
       <r>   -9.5488    1.0000 </r>
       <r>   -9.5474    1.0000 </r>
       <r>   -9.5446    1.0000 </r>
       <r>   -9.5247    1.0000 </r>
       <r>   -9.5222    1.0000 </r>
       <r>   -9.4854    1.0000 </r>
       <r>   -9.3988    1.0000 </r>
       <r>   -9.3971    1.0000 </r>
       <r>   -9.2386    1.0000 </r>
       <r>   -9.2374    1.0000 </r>
       <r>   -9.1886    1.0000 </r>
       <r>   -9.1851    1.0000 </r>
       <r>   -9.1838    1.0000 </r>
       <r>   -9.1026    1.0000 </r>
       <r>   -9.0320    1.0000 </r>
       <r>   -8.9591    1.0000 </r>
       <r>   -8.7418    1.0000 </r>
       <r>   -8.7414    1.0000 </r>
       <r>   -8.5633    1.0000 </r>
       <r>   -8.5621    1.0000 </r>
       <r>   -8.5544    1.0000 </r>
       <r>   -8.5533    1.0000 </r>
       <r>   -8.5366    1.0000 </r>
       <r>   -8.4035    1.0000 </r>
       <r>   -8.3648    1.0000 </r>
       <r>   -8.2290    1.0000 </r>
       <r>   -8.2266    1.0000 </r>
       <r>   -8.2252    1.0000 </r>
       <r>   -8.2224    1.0000 </r>
       <r>   -7.9060    1.0000 </r>
       <r>   -7.9035    1.0000 </r>
       <r>   -7.8756    1.0000 </r>
       <r>   -7.8741    1.0000 </r>
       <r>   -7.8505    1.0000 </r>
       <r>   -7.8316    1.0000 </r>
       <r>   -7.7053    1.0000 </r>
       <r>   -7.7017    1.0000 </r>
       <r>   -7.5885    1.0000 </r>
       <r>   -7.4913    1.0000 </r>
       <r>   -7.4905    1.0000 </r>
       <r>   -7.3915    1.0000 </r>
       <r>   -7.1944    1.0000 </r>
       <r>   -7.1921    1.0000 </r>
       <r>   -7.0214    1.0000 </r>
       <r>   -7.0208    1.0000 </r>
       <r>   -6.8475    1.0000 </r>
       <r>   -6.7233    1.0000 </r>
       <r>   -6.7225    1.0000 </r>
       <r>   -6.6375    1.0000 </r>
       <r>   -6.6361    1.0000 </r>
       <r>   -6.6331    1.0000 </r>
       <r>   -6.5946    1.0000 </r>
       <r>   -6.5938    1.0000 </r>
       <r>   -6.5881    1.0000 </r>
       <r>   -6.5869    1.0000 </r>
       <r>   -6.5772    1.0000 </r>
       <r>   -6.5769    1.0000 </r>
       <r>   -6.4807    1.0000 </r>
       <r>   -6.0240    1.0000 </r>
       <r>   -5.9717    1.0000 </r>
       <r>   -5.9702    1.0000 </r>
       <r>   -5.8931    1.0000 </r>
       <r>   -5.8918    1.0000 </r>
       <r>   -5.8135    1.0000 </r>
       <r>   -5.6514    1.0000 </r>
       <r>   -5.6483    1.0000 </r>
       <r>   -3.1012    0.0000 </r>
       <r>   -3.0994    0.0000 </r>
       <r>   -3.0503    0.0000 </r>
       <r>   -2.9184    0.0000 </r>
       <r>   -2.9144    0.0000 </r>
       <r>   -2.8607    0.0000 </r>
       <r>   -2.2242    0.0000 </r>
       <r>   -2.2211    0.0000 </r>
       <r>   -1.7953    0.0000 </r>
       <r>   -1.7211    0.0000 </r>
       <r>   -1.7198    0.0000 </r>
       <r>   -1.6014    0.0000 </r>
       <r>   -1.5989    0.0000 </r>
       <r>   -1.5588    0.0000 </r>
       <r>   -1.5566    0.0000 </r>
       <r>   -1.5189    0.0000 </r>
       <r>   -1.5159    0.0000 </r>
       <r>   -1.2856    0.0000 </r>
       <r>   -1.2826    0.0000 </r>
       <r>   -1.1733    0.0000 </r>
       <r>   -1.1637    0.0000 </r>
       <r>   -0.9018    0.0000 </r>
       <r>   -0.8957    0.0000 </r>
       <r>   -0.7339    0.0000 </r>
       <r>   -0.7160    0.0000 </r>
       <r>   -0.7136    0.0000 </r>
       <r>   -0.6326    0.0000 </r>
       <r>   -0.6297    0.0000 </r>
       <r>   -0.5795    0.0000 </r>
       <r>   -0.4870    0.0000 </r>
       <r>   -0.4131    0.0000 </r>
       <r>   -0.4113    0.0000 </r>
       <r>   -0.2513    0.0000 </r>
       <r>   -0.2456    0.0000 </r>
       <r>   -0.1353    0.0000 </r>
       <r>   -0.1336    0.0000 </r>
       <r>    0.0823    0.0000 </r>
       <r>    0.0855    0.0000 </r>
       <r>    0.0997    0.0000 </r>
       <r>    0.1012    0.0000 </r>
       <r>    0.2060    0.0000 </r>
       <r>    0.2260    0.0000 </r>
       <r>    0.3957    0.0000 </r>
       <r>    0.3970    0.0000 </r>
       <r>    0.4205    0.0000 </r>
       <r>    0.4220    0.0000 </r>
       <r>    0.4908    0.0000 </r>
       <r>    0.5879    0.0000 </r>
       <r>    0.6353    0.0000 </r>
       <r>    0.6478    0.0000 </r>
       <r>    0.6479    0.0000 </r>
       <r>    0.6903    0.0000 </r>
       <r>    0.7481    0.0000 </r>
       <r>    0.7529    0.0000 </r>
       <r>    0.7548    0.0000 </r>
       <r>    0.8015    0.0000 </r>
       <r>    0.8032    0.0000 </r>
       <r>    0.8242    0.0000 </r>
       <r>    0.8258    0.0000 </r>
       <r>    0.8817    0.0000 </r>
       <r>    0.9037    0.0000 </r>
       <r>    0.9427    0.0000 </r>
       <r>    0.9462    0.0000 </r>
       <r>    0.9477    0.0000 </r>
       <r>    0.9500    0.0000 </r>
       <r>    0.9541    0.0000 </r>
       <r>    0.9749    0.0000 </r>
       <r>    1.0087    0.0000 </r>
       <r>    1.0344    0.0000 </r>
       <r>    1.0794    0.0000 </r>
       <r>    1.0819    0.0000 </r>
      </set>
      <set comment="kpoint 2">
       <r>  -27.7283    1.0000 </r>
       <r>  -27.7255    1.0000 </r>
       <r>  -27.7216    1.0000 </r>
       <r>  -27.7169    1.0000 </r>
       <r>  -27.7130    1.0000 </r>
       <r>  -27.7088    1.0000 </r>
       <r>  -25.6682    1.0000 </r>
       <r>  -25.6673    1.0000 </r>
       <r>  -25.6633    1.0000 </r>
       <r>  -25.6548    1.0000 </r>
       <r>  -25.6536    1.0000 </r>
       <r>  -25.6507    1.0000 </r>
       <r>  -25.0559    1.0000 </r>
       <r>  -25.0550    1.0000 </r>
       <r>  -25.0546    1.0000 </r>
       <r>  -23.2171    1.0000 </r>
       <r>  -23.2169    1.0000 </r>
       <r>  -23.2163    1.0000 </r>
       <r>  -22.1254    1.0000 </r>
       <r>  -22.1157    1.0000 </r>
       <r>  -21.8009    1.0000 </r>
       <r>  -21.7996    1.0000 </r>
       <r>  -21.7227    1.0000 </r>
       <r>  -21.7216    1.0000 </r>
       <r>  -21.4523    1.0000 </r>
       <r>  -21.2939    1.0000 </r>
       <r>  -20.6743    1.0000 </r>
       <r>  -20.6734    1.0000 </r>
       <r>  -20.3597    1.0000 </r>
       <r>  -20.0030    1.0000 </r>
       <r>  -20.0013    1.0000 </r>
       <r>  -19.4320    1.0000 </r>
       <r>  -19.4301    1.0000 </r>
       <r>  -19.2057    1.0000 </r>
       <r>  -18.7883    1.0000 </r>
       <r>  -18.7872    1.0000 </r>
       <r>  -18.7632    1.0000 </r>
       <r>  -18.7412    1.0000 </r>
       <r>  -18.7403    1.0000 </r>
       <r>  -18.7313    1.0000 </r>
       <r>  -18.4229    1.0000 </r>
       <r>  -18.4153    1.0000 </r>
       <r>  -18.3562    1.0000 </r>
       <r>  -17.8088    1.0000 </r>
       <r>  -17.8083    1.0000 </r>
       <r>  -17.7229    1.0000 </r>
       <r>  -17.7143    1.0000 </r>
       <r>  -17.7139    1.0000 </r>
       <r>  -16.8924    1.0000 </r>
       <r>  -16.8124    1.0000 </r>
       <r>  -16.8121    1.0000 </r>
       <r>  -16.0007    1.0000 </r>
       <r>  -16.0000    1.0000 </r>
       <r>  -15.7714    1.0000 </r>
       <r>  -15.6689    1.0000 </r>
       <r>  -15.6673    1.0000 </r>
       <r>  -15.5686    1.0000 </r>
       <r>  -15.5658    1.0000 </r>
       <r>  -15.4911    1.0000 </r>
       <r>  -15.3815    1.0000 </r>
       <r>  -15.3559    1.0000 </r>
       <r>  -15.3532    1.0000 </r>
       <r>  -15.2579    1.0000 </r>
       <r>  -15.1919    1.0000 </r>
       <r>  -15.1830    1.0000 </r>
       <r>  -15.1797    1.0000 </r>
       <r>  -14.9887    1.0000 </r>
       <r>  -14.9803    1.0000 </r>
       <r>  -14.9778    1.0000 </r>
       <r>  -14.3241    1.0000 </r>
       <r>  -14.3228    1.0000 </r>
       <r>  -14.2370    1.0000 </r>
       <r>  -14.2360    1.0000 </r>
       <r>  -13.9497    1.0000 </r>
       <r>  -13.9106    1.0000 </r>
       <r>  -13.9096    1.0000 </r>
       <r>  -13.8370    1.0000 </r>
       <r>  -13.8165    1.0000 </r>
       <r>  -13.8159    1.0000 </r>
       <r>  -13.6183    1.0000 </r>
       <r>  -13.5551    1.0000 </r>
       <r>  -13.5532    1.0000 </r>
       <r>  -13.4064    1.0000 </r>
       <r>  -13.2289    1.0000 </r>
       <r>  -12.7379    1.0000 </r>
       <r>  -12.7370    1.0000 </r>
       <r>  -12.2615    1.0000 </r>
       <r>  -12.2016    1.0000 </r>
       <r>  -12.1993    1.0000 </r>
       <r>  -12.1110    1.0000 </r>
       <r>  -12.0372    1.0000 </r>
       <r>  -11.9920    1.0000 </r>
       <r>  -11.9176    1.0000 </r>
       <r>  -11.7422    1.0000 </r>
       <r>  -11.7186    1.0000 </r>
       <r>  -11.7161    1.0000 </r>
       <r>  -11.4828    1.0000 </r>
       <r>  -11.4798    1.0000 </r>
       <r>  -11.4700    1.0000 </r>
[...]
       <r>   -22.6103     0.0000    36.0000 </r>
       <r>   -22.5045     0.0000    36.0000 </r>
       <r>   -22.3987     0.0000    36.0000 </r>
       <r>   -22.2929     0.0000    36.0000 </r>
       <r>   -22.1871     0.0000    36.0000 </r>
       <r>   -22.0812    37.7995    40.0000 </r>
       <r>   -21.9754     0.0000    40.0000 </r>
       <r>   -21.8696     0.0000    40.0000 </r>
       <r>   -21.7638    39.0296    44.1302 </r>
       <r>   -21.6580    25.5146    48.0000 </r>
       <r>   -21.5521     0.0000    48.0000 </r>
       <r>   -21.4463     2.8989    48.3068 </r>
       <r>   -21.3405    20.4294    50.9619 </r>
       <r>   -21.2347     5.9849    52.0000 </r>
       <r>   -21.1288     0.0000    52.0000 </r>
       <r>   -21.0230     0.0000    52.0000 </r>
       <r>   -20.9172     0.0000    52.0000 </r>
       <r>   -20.8114     0.0000    52.0000 </r>
       <r>   -20.7056     0.0001    52.0000 </r>
       <r>   -20.5997    28.3246    54.9974 </r>
       <r>   -20.4939    10.9352    56.7239 </r>
       <r>   -20.3881     4.8272    57.5775 </r>
       <r>   -20.2823     1.5749    58.0000 </r>
       <r>   -20.1765     0.0000    58.0000 </r>
       <r>   -20.0706     0.0000    58.0000 </r>
       <r>   -19.9648    23.0152    60.4355 </r>
       <r>   -19.8590     3.5396    60.9412 </r>
       <r>   -19.7532     8.5503    61.9715 </r>
       <r>   -19.6473     7.5739    63.0015 </r>
       <r>   -19.5415     2.5172    63.3997 </r>
       <r>   -19.4357     7.6550    64.3101 </r>
       <r>   -19.3299     0.0000    66.0000 </r>
       <r>   -19.2241     0.0096    66.0010 </r>
       <r>   -19.1182     3.2142    66.5068 </r>
       <r>   -19.0124     2.5128    66.8659 </r>
       <r>   -18.9066     7.0250    67.7101 </r>
       <r>   -18.8008     9.2613    68.8800 </r>
       <r>   -18.6950    90.1346    80.8382 </r>
       <r>   -18.5891     2.6349    81.3788 </r>
       <r>   -18.4833     2.5653    81.7048 </r>
       <r>   -18.3775    20.8075    84.0019 </r>
       <r>   -18.2717     2.2694    84.3735 </r>
       <r>   -18.1658     2.6833    84.7173 </r>
       <r>   -18.0600     5.6962    85.4028 </r>
       <r>   -17.9542     7.2812    86.4372 </r>
       <r>   -17.8484     4.4804    87.4408 </r>
       <r>   -17.7426    21.1162    90.0013 </r>
       <r>   -17.6367    42.8388    96.0000 </r>
       <r>   -17.5309     0.0000    96.0000 </r>
       <r>   -17.4251     0.0000    96.0000 </r>
       <r>   -17.3193     0.0000    96.0000 </r>
       <r>   -17.2135     0.0000    96.0000 </r>
       <r>   -17.1076     0.0000    96.0000 </r>
       <r>   -17.0018     0.0000    96.0000 </r>
       <r>   -16.8960     1.0304    96.1090 </r>
       <r>   -16.7902    48.4988   101.9989 </r>
       <r>   -16.6843     0.0000   102.0000 </r>
       <r>   -16.5785     0.0000   102.0000 </r>
       <r>   -16.4727     0.0000   102.0000 </r>
       <r>   -16.3669     0.0000   102.0000 </r>
       <r>   -16.2611     0.0000   102.0000 </r>
       <r>   -16.1552     0.0000   102.0000 </r>
       <r>   -16.0494     0.0000   102.0000 </r>
       <r>   -15.9436    28.6193   105.0285 </r>
       <r>   -15.8378    13.3203   107.2096 </r>
       <r>   -15.7320     5.3550   108.0000 </r>
       <r>   -15.6261    33.5124   111.5463 </r>
       <r>   -15.5203    34.5818   115.9262 </r>
       <r>   -15.4145    28.7657   119.0440 </r>
       <r>   -15.3087    26.2505   123.4445 </r>
       <r>   -15.2028    29.0342   127.1725 </r>
       <r>   -15.0970    29.2943   132.0000 </r>
       <r>   -14.9912    21.5010   134.2753 </r>
       <r>   -14.8854     0.0000   138.0000 </r>
       <r>   -14.7796     0.0000   138.0000 </r>
       <r>   -14.6737     0.0000   138.0000 </r>
       <r>   -14.5679     0.0000   138.0000 </r>
       <r>   -14.4621     0.0000   138.0000 </r>
       <r>   -14.3563     0.0000   138.0000 </r>
       <r>   -14.2505    54.2686   143.7428 </r>
       <r>   -14.1446     0.0000   146.0000 </r>
       <r>   -14.0388     0.0000   146.0000 </r>
       <r>   -13.9330    14.7106   147.5567 </r>
       <r>   -13.8272    24.7793   154.0889 </r>
       <r>   -13.7213     0.0000   158.0000 </r>
       <r>   -13.6155     3.3595   158.3555 </r>
       <r>   -13.5097    39.3744   164.0000 </r>
       <r>   -13.4039     2.2602   164.2392 </r>
       <r>   -13.2981    19.9470   166.9108 </r>
       <r>   -13.1922     6.9299   168.0000 </r>
       <r>   -13.0864     0.0000   168.0000 </r>
       <r>   -12.9806     0.0000   168.0000 </r>
       <r>   -12.8748     0.0000   168.0000 </r>
       <r>   -12.7690     0.0002   168.0000 </r>
       <r>   -12.6631    26.0103   170.7525 </r>
       <r>   -12.5573     8.5580   171.8056 </r>
       <r>   -12.4515     8.4235   172.9914 </r>
       <r>   -12.3457     3.1401   173.4656 </r>
       <r>   -12.2398     4.0921   173.9997 </r>
       <r>   -12.1340    27.1428   176.8723 </r>
       <r>   -12.0282     5.4166   180.5732 </r>
       <r>   -11.9224    13.5580   184.0681 </r>
       <r>   -11.8166    15.7675   186.2685 </r>
       <r>   -11.7107    26.1164   189.8303 </r>
       <r>   -11.6049    15.4204   192.2651 </r>
       <r>   -11.4991     7.1724   193.7257 </r>
       <r>   -11.3933    43.4999   199.1699 </r>
       <r>   -11.2875     8.9527   202.0141 </r>
       <r>   -11.1816    23.4066   206.0769 </r>
       <r>   -11.0758    15.0088   208.5216 </r>
       <r>   -10.9700     8.5740   210.9073 </r>
       <r>   -10.8642    72.1338   220.0000 </r>
       <r>   -10.7583    28.8324   223.0511 </r>
       <r>   -10.6525    75.5979   231.9999 </r>
       <r>   -10.5467   113.3985   244.0000 </r>
       <r>   -10.4409    52.3277   249.5374 </r>
       <r>   -10.3351    76.8011   258.1272 </r>
       <r>   -10.2292     0.0000   262.0000 </r>
       <r>   -10.1234     0.0000   262.0000 </r>
       <r>   -10.0176     0.0000   262.0000 </r>
       <r>    -9.9118     0.0000   262.0000 </r>
       <r>    -9.8060     7.5016   262.7938 </r>
       <r>    -9.7001    22.6792   268.0000 </r>
       <r>    -9.5943    23.0909   270.4435 </r>
       <r>    -9.4885    82.0197   280.1128 </r>
       <r>    -9.3827    48.1941   285.9666 </r>
       <r>    -9.2768     0.0006   286.0001 </r>
       <r>    -9.1710    75.5497   294.1282 </r>
       <r>    -9.0652    27.4045   298.0000 </r>
       <r>    -8.9594    36.3595   301.8476 </r>
       <r>    -8.8536     0.0000   302.0000 </r>
       <r>    -8.7477     2.7256   302.2884 </r>
       <r>    -8.6419    16.0153   306.1948 </r>
       <r>    -8.5361    68.5469   314.3204 </r>
       <r>    -8.4303     0.0002   316.0000 </r>
       <r>    -8.3245    37.7993   320.0000 </r>
       <r>    -8.2186    51.6335   325.4639 </r>
       <r>    -8.1128     0.0000   328.0000 </r>
       <r>    -8.0070     0.0000   328.0000 </r>
       <r>    -7.9012    19.2309   330.0350 </r>
       <r>    -7.7953    56.6981   340.0000 </r>
       <r>    -7.6895    28.4245   343.0079 </r>
       <r>    -7.5837    15.9317   345.9526 </r>
       <r>    -7.4779    21.5400   348.2794 </r>
       <r>    -7.3721    31.1737   351.9989 </r>
       <r>    -7.2662     0.0000   352.0000 </r>
       <r>    -7.1604    26.5027   354.8045 </r>
       <r>    -7.0546    16.9614   357.1949 </r>
       <r>    -6.9488    22.3647   360.0000 </r>
       <r>    -6.8430     5.2815   360.5589 </r>
       <r>    -6.7371    15.3481   363.7242 </r>
       <r>    -6.6313    40.0762   370.2409 </r>
       <r>    -6.5255   113.3985   384.0000 </r>
       <r>    -6.4197     5.8062   384.6144 </r>
       <r>    -6.3138     7.5152   385.5619 </r>
       <r>    -6.2080     8.7725   386.7617 </r>
       <r>    -6.1022     3.5990   387.4475 </r>
       <r>    -5.9964     4.1008   388.0006 </r>
       <r>    -5.8906    41.9196   394.4360 </r>
       <r>    -5.7847     6.0610   396.6414 </r>
       <r>    -5.6789    20.4802   399.1006 </r>
       <r>    -5.5731    22.0488   402.0000 </r>
       <r>    -5.4673     0.0000   402.0000 </r>
       <r>    -5.3615     0.0000   402.0000 </r>
       <r>    -5.2556     0.0000   402.0000 </r>
       <r>    -5.1498     0.0000   402.0000 </r>
       <r>    -5.0440     0.0000   402.0000 </r>
       <r>    -4.9382     0.0000   402.0000 </r>
       <r>    -4.8323     0.0000   402.0000 </r>
       <r>    -4.7265     0.0000   402.0000 </r>
       <r>    -4.6207     0.0000   402.0000 </r>
       <r>    -4.5149     0.0000   402.0000 </r>
       <r>    -4.4091     0.0000   402.0000 </r>
       <r>    -4.3032     0.0000   402.0000 </r>
       <r>    -4.1974     0.0000   402.0000 </r>
       <r>    -4.0916     0.0000   402.0000 </r>
       <r>    -3.9858     0.0000   402.0000 </r>
       <r>    -3.8800     0.0000   402.0000 </r>
       <r>    -3.7741     0.0000   402.0000 </r>
       <r>    -3.6683     0.0000   402.0000 </r>
       <r>    -3.5625     0.0000   402.0000 </r>
       <r>    -3.4567     0.0000   402.0000 </r>
       <r>    -3.3508     0.0000   402.0000 </r>
       <r>    -3.2450     0.0000   402.0000 </r>
       <r>    -3.1392     0.0000   402.0000 </r>
       <r>    -3.0334    56.6696   407.9969 </r>
       <r>    -2.9276     1.6177   408.1712 </r>
       <r>    -2.8217    24.5694   414.0000 </r>
       <r>    -2.7159     0.0000   414.0000 </r>
       <r>    -2.6101     0.0000   414.0000 </r>
       <r>    -2.5043     0.0000   414.0000 </r>
       <r>    -2.3984     0.0000   414.0000 </r>
       <r>    -2.2926     0.0000   414.0000 </r>
       <r>    -2.1868    24.6808   416.6118 </r>
       <r>    -2.0810     9.7194   417.8285 </r>
       <r>    -1.9752     9.0627   419.0590 </r>
       <r>    -1.8693     3.1446   419.5328 </r>
       <r>    -1.7635     3.4649   420.0000 </r>
       <r>    -1.6577    24.2876   422.5701 </r>
       <r>    -1.5519    65.1154   429.8239 </r>
       <r>    -1.4461    28.2975   434.9945 </r>
       <r>    -1.3402    14.0630   437.0215 </r>
       <r>    -1.2344    25.5146   440.0000 </r>
       <r>    -1.1286    37.7995   444.0000 </r>
       <r>    -1.0228     0.0000   444.0000 </r>
       <r>    -0.9169     0.1696   444.0179 </r>
       <r>    -0.8111    20.0352   448.5868 </r>
       <r>    -0.7053    35.1720   452.8553 </r>
       <r>    -0.5995    28.3519   458.0002 </r>
       <r>    -0.4937     9.6957   459.1927 </r>
       <r>    -0.3878    42.2827   464.9744 </r>
       <r>    -0.2820    14.0507   467.2202 </r>
       <r>    -0.1762    22.9945   470.0000 </r>
       <r>    -0.0704    37.7995   474.0000 </r>
       <r>     0.0354     0.1595   474.0169 </r>
       <r>     0.1413    63.2474   481.9929 </r>
       <r>     0.2471    27.7786   484.9396 </r>
       <r>     0.3529     0.4856   486.0514 </r>
       <r>     0.4587    48.4747   492.6630 </r>
       <r>     0.5646    35.5987   497.1338 </r>
       <r>     0.6704    53.5897   504.4043 </r>
       <r>     0.7762    68.7133   513.2713 </r>
       <r>     0.8820    57.4781   522.0158 </r>
       <r>     0.9878    81.4421   532.6517 </r>
       <r>     1.0937    63.5460   542.0245 </r>
       <r>     1.1995     4.4099   544.0000 </r>
       <r>     1.3053     0.0000   544.0000 </r>
       <r>     1.4111     0.0000   544.0000 </r>
       <r>     1.5169     0.0000   544.0000 </r>
       <r>     1.6228     0.0000   544.0000 </r>
       <r>     1.7286     0.0000   544.0000 </r>
       <r>     1.8344     0.0000   544.0000 </r>
       <r>     1.9402     0.0000   544.0000 </r>
       <r>     2.0461     0.0000   544.0000 </r>
       <r>     2.1519     0.0000   544.0000 </r>
       <r>     2.2577     0.0000   544.0000 </r>
       <r>     2.3635     0.0000   544.0000 </r>
       <r>     2.4693     0.0000   544.0000 </r>
       <r>     2.5752     0.0000   544.0000 </r>
      </set>
     </set>
    </array>
   </total>
  </dos>
 </calculation>
 <structure name="finalpos" >
  <crystal>
   <varray name="basis" >
    <v>      29.64765009       0.00229654       0.00000000 </v>
    <v>     -14.82173537      25.68345444       0.00000000 </v>
    <v>       0.00000000       0.00000000      20.00000000 </v>
   </varray>
   <i name="volume">  15229.76218568 </i>
   <varray name="rec_basis" >
    <v>       0.03372798       0.01946417       0.00000000 </v>
    <v>      -0.00000302       0.03893383       0.00000000 </v>
    <v>       0.00000000       0.00000000       0.05000000 </v>
   </varray>
  </crystal>
  <varray name="positions" >
   <v>       0.06257008       0.53088265       0.50642864 </v>
   <v>       0.03072414       0.50729627       0.44956442 </v>
   <v>       0.05162036       0.50925602       0.37979198 </v>
   <v>       0.14774686       0.60308452       0.54618209 </v>
   <v>       0.12003489       0.55884937       0.50552178 </v>
   <v>       0.14804556       0.54187487       0.46630445 </v>
   <v>       0.28772739       0.64227222       0.50720505 </v>
   <v>       0.31550380       0.69687792       0.50716117 </v>
   <v>       0.37012361       0.72466635       0.50730688 </v>
   <v>       0.39697050       0.69689055       0.50754017 </v>
   <v>       0.37015604       0.64227486       0.50750895 </v>
   <v>       0.31553905       0.61544703       0.50741334 </v>
   <v>       0.39892826       0.78225422       0.50699861 </v>
   <v>       0.38226727       0.81015349       0.46701789 </v>
   <v>       0.40961628       0.86431455       0.46595974 </v>
   <v>       0.45432891       0.89229616       0.50563974 </v>
   <v>       0.47052880       0.86460298       0.54685847 </v>
   <v>       0.44354744       0.81048818       0.54690448 </v>
   <v>       0.23012795       0.61353085       0.50684197 </v>
   <v>       0.20187200       0.63021026       0.54623600 </v>
   <v>       0.20221962       0.56872678       0.46731005 </v>
   <v>       0.39897222       0.61348070       0.50733093 </v>
   <v>       0.38255366       0.56882878       0.54717262 </v>
   <v>       0.40975365       0.54189316       0.54723192 </v>
   <v>       0.45374700       0.55815315       0.50618421 </v>
   <v>       0.47048648       0.60288179       0.46653524 </v>
   <v>       0.44360284       0.63018303       0.46748011 </v>
   <v>       0.73088880       0.36432130       0.51198780 </v>
   <v>       0.70368085       0.30970961       0.51192466 </v>
   <v>       0.64906758       0.28134904       0.51169401 </v>
   <v>       0.62164236       0.30855046       0.51151875 </v>
   <v>       0.64788755       0.36314855       0.51165368 </v>
   <v>       0.70250135       0.39055529       0.51179081 </v>
   <v>       0.62085804       0.22377145       0.51191900 </v>
   <v>       0.63803412       0.19627178       0.55182228 </v>
   <v>       0.61125611       0.14210712       0.55284576 </v>
   <v>       0.56658424       0.11371342       0.51323236 </v>
   <v>       0.54984778       0.14102206       0.47212926 </v>
   <v>       0.57627413       0.19513624       0.47209282 </v>
   <v>       0.78847926       0.39373129       0.51242366 </v>
   <v>       0.81723952       0.37756011       0.47320851 </v>
   <v>       0.87135079       0.40536846       0.47324269 </v>
   <v>       0.89856344       0.44981943       0.51368078 </v>
   <v>       0.87004854       0.46627583       0.55275196 </v>
   <v>       0.81587840       0.43872207       0.55177890 </v>
   <v>       0.61852163       0.39137684       0.51199878 </v>
   <v>       0.63442785       0.43596479       0.47220754 </v>
   <v>       0.60674873       0.46240454       0.47237847 </v>
   <v>       0.56278435       0.44569695       0.51361954 </v>
   <v>       0.54655932       0.40103785       0.55322170 </v>
   <v>       0.57392064       0.37421954       0.55202780 </v>
   <v>       0.52883595       0.02453330       0.56952968 </v>
   <v>       0.53757101       0.05624093       0.51238791 </v>
   <v>       0.54696018       0.04561445       0.63944281 </v>
   <v>       0.51126965       0.48336043       0.56994387 </v>
   <v>       0.53431182       0.47470115       0.51280794 </v>
   <v>       0.51381907       0.46487506       0.63978235 </v>
   <v>       0.98788716       0.50234568       0.56938672 </v>
   <v>       0.95603770       0.47842142       0.51263477 </v>
   <v>       0.96701570       0.50110455       0.63896416 </v>
   <v>       0.48378871       0.94974762       0.50649052 </v>
   <v>       0.49262252       0.98145812       0.44933332 </v>
   <v>       0.47443831       0.96045979       0.37940741 </v>
   <v>       0.48169941       0.52862049       0.50701202 </v>
   <v>       0.50447110       0.51969038       0.44980311 </v>
   <v>       0.50140338       0.53779740       0.37990800 </v>
   <v>       0.08537059       0.58430871       0.38520675 </v>
   <v>       0.12610330       0.61551781       0.57800716 </v>
   <v>       0.12757408       0.50696711       0.43555054 </v>
   <v>       0.22275303       0.66422201       0.57842251 </v>
   <v>       0.22328333       0.55523510       0.43607448 </v>
   <v>       0.34869158       0.55587551       0.57959756 </v>
   <v>       0.39754850       0.50804981       0.57940438 </v>
   <v>       0.45690087       0.66454224       0.43593374 </v>
   <v>       0.50522087       0.61711274       0.43546880 </v>
   <v>       0.45642232       0.78958821       0.57947088 </v>
   <v>       0.50433730       0.88625921       0.57909033 </v>
   <v>       0.39541334       0.88481172       0.43482790 </v>
   <v>       0.34789095       0.78909405       0.43549895 </v>
   <v>       0.29425304       0.71811978       0.50697966 </v>
   <v>       0.29431742       0.57296465       0.50745454 </v>
   <v>       0.43946305       0.71814417       0.50769071 </v>
   <v>       0.89338903       0.39332583       0.44156455 </v>
   <v>       0.79674418       0.34340836       0.44116622 </v>
   <v>       0.89008484       0.50131333       0.58334769 </v>
   <v>       0.79442687       0.45183521       0.58287969 </v>
   <v>       0.66825641       0.44923748       0.43964078 </v>
   <v>       0.61852297       0.49617776       0.44020927 </v>
   <v>       0.56102784       0.33988919       0.58351032 </v>
   <v>       0.51184519       0.38645237       0.58439989 </v>
   <v>       0.56296515       0.21571738       0.43961863 </v>
   <v>       0.51604628       0.11907742       0.43997878 </v>
   <v>       0.62584936       0.12194433       0.58395671 </v>
   <v>       0.67235302       0.21766300       0.58335164 </v>
   <v>       0.72537826       0.28891655       0.51209856 </v>
   <v>       0.72325915       0.43303518       0.51184260 </v>
   <v>       0.57915369       0.28687523       0.51135929 </v>
   <v>       0.50640280       0.08008391       0.63183609 </v>
   <v>       0.58880931       0.50686893       0.63388720 </v>
   <v>       0.93357241       0.42601638       0.63518073 </v>
   <v>       0.51606039       0.92709909       0.38613377 </v>
   <v>       0.42643112       0.49668416       0.38732614 </v>
   <v>       0.04256117       0.47063794       0.34845971 </v>
   <v>       0.08089477       0.55768027       0.35281939 </v>
   <v>       0.57584336       0.03630047       0.67193672 </v>
   <v>       0.52783541       0.07533686       0.66512532 </v>
   <v>       0.47542416       0.43524582       0.67142392 </v>
   <v>       0.56243240       0.48450653       0.66641086 </v>
   <v>       0.97596577       0.54008754       0.66932253 </v>
   <v>       0.93791736       0.45300808       0.66688429 </v>
   <v>       0.44507696       0.96936406       0.34733213 </v>
   <v>       0.49408608       0.93135645       0.35320923 </v>
   <v>       0.53954170       0.56694037       0.34750271 </v>
   <v>       0.45254847       0.51839639       0.35414557 </v>
   <v>       0.03973628       0.52804442       0.56564673 </v>
   <v>       0.50298163       0.97266681       0.56590325 </v>
   <v>       0.48536891       0.50932920       0.56639446 </v>
   <v>       0.51853064       0.03329643       0.45295435 </v>
   <v>       0.53040892       0.49374721       0.45335832 </v>
   <v>       0.97887548       0.48143577       0.45335877 </v>
  </varray>
 </structure>
</modeling>
