<?xml version="1.0" encoding="ISO-8859-1"?>
<modeling>
 <generator>
  <i name="program" type="string">vasp </i>
  <i name="version" type="string">5.4.4.18Apr17-6-g9f103f2a35  </i>
  <i name="subversion" type="string">(build Jun 07 2020 16:50:00) complex            parallel </i>
  <i name="platform" type="string">LinuxIFC </i>
  <i name="date" type="string">2023 02 21 </i>
  <i name="time" type="string">22:46:14 </i>
 </generator>
 <incar>
  <i type="string" name="SYSTEM">Simulation for cell shape cell volume r</i>
  <i type="int" name="ISTART">     1</i>
  <i type="string" name="PREC">high</i>
  <i type="string" name="ALGO">48</i>
  <i type="int" name="ICHARG">    11</i>
  <i type="int" name="NELM">   200</i>
  <i type="int" name="IBRION">    -1</i>
  <i name="EDIFF">      0.00001000</i>
  <i name="EDIFFG">     -0.01000000</i>
  <i type="int" name="NSW">     0</i>
  <i type="int" name="ISIF">     2</i>
  <i name="ENCUT">    500.00000000</i>
  <i name="POTIM">      0.30000000</i>
  <i type="string" name="LREAL">A</i>
  <i type="int" name="ISMEAR">     0</i>
  <i name="SIGMA">      0.01000000</i>
  <i type="int" name="NWRITE">     0</i>
  <i type="logical" name="LWAVE"> F  </i>
  <i type="logical" name="LCHARG"> F  </i>
  <v type="int" name="KPOINT_BSE">    -1     0     0     0</v>
  <i type="int" name="NELM">   200</i>
  <i type="string" name="GGA">PE</i>
 </incar>
 <structure name="primitive_cell" >
  <crystal>
   <varray name="basis" >
    <v>      29.74938267       0.00482521       0.00000000 </v>
    <v>     -14.87051339      25.76113520       0.00000000 </v>
    <v>       0.00000000       0.00000000      20.00000000 </v>
   </varray>
   <i name="volume">  15328.99244890 </i>
   <varray name="rec_basis" >
    <v>       0.03361100       0.01940181       0.00000000 </v>
    <v>      -0.00000630       0.03881453       0.00000000 </v>
    <v>       0.00000000       0.00000000       0.05000000 </v>
   </varray>
  </crystal>
  <varray name="positions" >
   <v>      -0.46530683       0.06029751      -0.36726087 </v>
   <v>      -0.48000293       0.04228661      -0.32310803 </v>
   <v>      -0.45154557       0.09904765      -0.36900959 </v>
   <v>      -0.48151584       0.03239162      -0.42536161 </v>
   <v>       0.49112721      -0.02186394      -0.42683451 </v>
   <v>      -0.47010024       0.05741674      -0.48877148 </v>
   <v>       0.48047069      -0.04464677      -0.38079943 </v>
   <v>      -0.44126187       0.11515275      -0.49247390 </v>
   <v>      -0.38688883       0.14315904      -0.49354073 </v>
   <v>      -0.46770676       0.14310220      -0.49325837 </v>
   <v>      -0.36542569       0.12226274      -0.49342346 </v>
   <v>      -0.48448488       0.03122447       0.45348942 </v>
   <v>       0.47758495      -0.04653135      -0.48889525 </v>
   <v>       0.48993484       0.12214632      -0.49310112 </v>
   <v>       0.48941632      -0.02064913       0.45236798 </v>
   <v>      -0.36001617       0.19720517      -0.49534848 </v>
   <v>      -0.44062456       0.19716996      -0.49487234 </v>
   <v>       0.44865161      -0.10423304      -0.49284854 </v>
   <v>      -0.38597456       0.22591658      -0.49564593 </v>
   <v>      -0.31778454       0.21694726      -0.49662790 </v>
   <v>      -0.46318055       0.21685896      -0.49565161 </v>
   <v>      -0.48254449      -0.11118822      -0.49292007 </v>
   <v>       0.37293144      -0.11113678      -0.49502847 </v>
   <v>       0.47510941      -0.13209732      -0.49372858 </v>
   <v>       0.39436176      -0.13206498      -0.49495754 </v>
   <v>      -0.35706906       0.28379040      -0.49639201 </v>
   <v>      -0.28148886       0.29098636      -0.49583783 </v>
   <v>      -0.42554465       0.29080855      -0.49660710 </v>
   <v>       0.44801509      -0.18613399      -0.49599717 </v>
   <v>       0.36745818      -0.18611454      -0.49706088 </v>
   <v>      -0.30261128       0.31202209      -0.49627271 </v>
   <v>      -0.38339541       0.31193326      -0.49656835 </v>
   <v>       0.39338359      -0.21484849      -0.49729777 </v>
   <v>       0.47053430      -0.20585921      -0.49666403 </v>
   <v>       0.32522908      -0.20583886      -0.49848567 </v>
   <v>      -0.20754640       0.32733000      -0.49758933 </v>
   <v>      -0.46330053       0.32689453      -0.49575906 </v>
   <v>      -0.27448447       0.36649536      -0.49643283 </v>
   <v>      -0.35718192       0.36639504      -0.49649795 </v>
   <v>      -0.30271675       0.39273990      -0.49660951 </v>
   <v>       0.36449602      -0.27270832      -0.49830666 </v>
   <v>      -0.18786081       0.36955266      -0.49590087 </v>
   <v>      -0.44089857       0.36913538      -0.49471205 </v>
   <v>      -0.21661367       0.39546185      -0.49569482 </v>
   <v>       0.43296396      -0.27977605      -0.49829919 </v>
   <v>      -0.38623464       0.39521709      -0.49556694 </v>
   <v>       0.28893768      -0.27985567      -0.49823749 </v>
   <v>       0.39081030      -0.30087099      -0.49838592 </v>
   <v>       0.31003999      -0.30091556      -0.49839093 </v>
   <v>      -0.28168078       0.43489920      -0.49668920 </v>
   <v>      -0.13380349       0.39649420      -0.49417963 </v>
   <v>      -0.11283643       0.37509958      -0.49473677 </v>
   <v>      -0.46817037       0.39590489      -0.49260596 </v>
   <v>       0.48948106       0.37437064      -0.49212893 </v>
   <v>      -0.18791609       0.45012058      -0.49437034 </v>
   <v>      -0.36044670       0.44986597      -0.49498450 </v>
   <v>       0.47065559      -0.31616630      -0.49753088 </v>
   <v>       0.21498946      -0.31622494      -0.49696092 </v>
   <v>      -0.20765419       0.47263133      -0.49482936 </v>
   <v>      -0.31822020       0.47248254      -0.49621054 </v>
   <v>       0.36456963      -0.35533473      -0.49827888 </v>
   <v>       0.28190094      -0.35538212      -0.49832545 </v>
   <v>      -0.10586964       0.45086026      -0.49235459 </v>
   <v>      -0.08960398       0.45719672      -0.36871952 </v>
   <v>      -0.44190710       0.45028015      -0.49173275 </v>
   <v>      -0.13387444       0.47725116      -0.49249556 </v>
   <v>      -0.44755025       0.46098177      -0.36816919 </v>
   <v>       0.44813288      -0.35840549      -0.49652142 </v>
   <v>       0.31011394      -0.38163267      -0.49830914 </v>
   <v>      -0.38753138       0.47685113      -0.49302129 </v>
   <v>       0.19530020      -0.35846830      -0.49619901 </v>
   <v>       0.39349252      -0.38428361      -0.49729165 </v>
   <v>       0.22404999      -0.38436300      -0.49740964 </v>
   <v>      -0.47234488       0.47498352      -0.36655798 </v>
   <v>      -0.05085068       0.48215499      -0.36713029 </v>
   <v>      -0.48242539      -0.36395308      -0.49398163 </v>
   <v>      -0.11298991      -0.48039689      -0.49164587 </v>
   <v>      -0.04813916       0.47971251      -0.48867400 </v>
   <v>      -0.36624174      -0.48078414      -0.49303432 </v>
   <v>       0.47522477      -0.38537019      -0.49436483 </v>
   <v>       0.12030425      -0.36405742      -0.49312952 </v>
   <v>       0.28906106      -0.42378584      -0.49801313 </v>
   <v>      -0.47090539       0.47901506      -0.48808821 </v>
   <v>      -0.03275193       0.48566665      -0.32299683 </v>
   <v>       0.14126971      -0.38544843      -0.49391610 </v>
   <v>      -0.47569766       0.48973894      -0.32247708 </v>
   <v>      -0.02305496       0.49371080      -0.42531434 </v>
   <v>      -0.48427136       0.49082620      -0.42477710 </v>
   <v>       0.36754613      -0.43893138      -0.49655124 </v>
   <v>       0.19537803      -0.43901897      -0.49717893 </v>
   <v>      -0.02200928       0.49101991       0.45355909 </v>
   <v>      -0.48307688       0.49288179       0.45405575 </v>
   <v>       0.32531436      -0.46143225      -0.49767937 </v>
   <v>       0.21515010      -0.46148645      -0.49858543 </v>
   <v>       0.44873627      -0.43968224      -0.49280776 </v>
   <v>       0.11346957      -0.43976507      -0.49300905 </v>
   <v>       0.39443513      -0.46608265      -0.49428715 </v>
   <v>       0.03119113      -0.47927153      -0.42690979 </v>
   <v>       0.14134098      -0.46619507      -0.49510057 </v>
   <v>       0.48884952      -0.48178882      -0.42649333 </v>
   <v>       0.02985144      -0.48317194       0.45232489 </v>
   <v>       0.49109865      -0.48107886       0.45267085 </v>
   <v>       0.05404202      -0.46680998      -0.38094127 </v>
   <v>       0.47694263      -0.47077117      -0.38056199 </v>
   <v>       0.05578104      -0.46857153      -0.48899905 </v>
   <v>       0.47742326      -0.46870574      -0.48868330 </v>
   <v>       0.37298462       0.49156496      -0.49387228 </v>
   <v>       0.12046237       0.49145051      -0.49511949 </v>
  </varray>
 </structure>
 <varray name="primitive_index" >
  <v type="int" >        1 </v>
  <v type="int" >       10 </v>
  <v type="int" >       11 </v>
  <v type="int" >       49 </v>
  <v type="int" >      108 </v>
  <v type="int" >       50 </v>
  <v type="int" >       48 </v>
  <v type="int" >       51 </v>
  <v type="int" >       67 </v>
  <v type="int" >       66 </v>
  <v type="int" >       14 </v>
  <v type="int" >        2 </v>
  <v type="int" >      107 </v>
  <v type="int" >       12 </v>
  <v type="int" >        9 </v>
  <v type="int" >       68 </v>
  <v type="int" >       65 </v>
  <v type="int" >       90 </v>
  <v type="int" >       64 </v>
  <v type="int" >       15 </v>
  <v type="int" >       13 </v>
  <v type="int" >       27 </v>
  <v type="int" >       29 </v>
  <v type="int" >       89 </v>
  <v type="int" >       91 </v>
  <v type="int" >       52 </v>
  <v type="int" >       25 </v>
  <v type="int" >       24 </v>
  <v type="int" >       88 </v>
  <v type="int" >       92 </v>
  <v type="int" >       57 </v>
  <v type="int" >       53 </v>
  <v type="int" >       87 </v>
  <v type="int" >       28 </v>
  <v type="int" >       30 </v>
  <v type="int" >       16 </v>
  <v type="int" >       23 </v>
  <v type="int" >       56 </v>
  <v type="int" >       54 </v>
  <v type="int" >       55 </v>
  <v type="int" >       75 </v>
  <v type="int" >       70 </v>
  <v type="int" >       59 </v>
  <v type="int" >       69 </v>
  <v type="int" >       39 </v>
  <v type="int" >       58 </v>
  <v type="int" >       40 </v>
  <v type="int" >       76 </v>
  <v type="int" >       80 </v>
  <v type="int" >       26 </v>
  <v type="int" >       71 </v>
  <v type="int" >       17 </v>
  <v type="int" >       60 </v>
  <v type="int" >       22 </v>
  <v type="int" >       74 </v>
  <v type="int" >       63 </v>
  <v type="int" >       38 </v>
  <v type="int" >       31 </v>
  <v type="int" >       18 </v>
  <v type="int" >       20 </v>
  <v type="int" >       77 </v>
  <v type="int" >       79 </v>
  <v type="int" >       72 </v>
  <v type="int" >       46 </v>
  <v type="int" >       61 </v>
  <v type="int" >       73 </v>
  <v type="int" >       43 </v>
  <v type="int" >       82 </v>
  <v type="int" >       78 </v>
  <v type="int" >       62 </v>
  <v type="int" >       94 </v>
  <v type="int" >       81 </v>
  <v type="int" >       93 </v>
  <v type="int" >        3 </v>
  <v type="int" >        4 </v>
  <v type="int" >       37 </v>
  <v type="int" >       19 </v>
  <v type="int" >      106 </v>
  <v type="int" >       21 </v>
  <v type="int" >       83 </v>
  <v type="int" >       32 </v>
  <v type="int" >       41 </v>
  <v type="int" >      102 </v>
  <v type="int" >       45 </v>
  <v type="int" >       95 </v>
  <v type="int" >       42 </v>
  <v type="int" >      105 </v>
  <v type="int" >      101 </v>
  <v type="int" >       86 </v>
  <v type="int" >       98 </v>
  <v type="int" >        7 </v>
  <v type="int" >        5 </v>
  <v type="int" >       35 </v>
  <v type="int" >       33 </v>
  <v type="int" >       84 </v>
  <v type="int" >       96 </v>
  <v type="int" >       85 </v>
  <v type="int" >      104 </v>
  <v type="int" >       97 </v>
  <v type="int" >      100 </v>
  <v type="int" >        8 </v>
  <v type="int" >        6 </v>
  <v type="int" >       47 </v>
  <v type="int" >       44 </v>
  <v type="int" >      103 </v>
  <v type="int" >       99 </v>
  <v type="int" >       36 </v>
  <v type="int" >       34 </v>
 </varray>
 <kpoints>
  <generation param="listgenerated">
   <i name="divisions" type="int">      20 </i>
   <v>       0.00000000       0.00000000       0.00000000 </v>
   <v>       0.50000000       0.00000000       0.00000000 </v>
   <v>       0.33333333       0.33333333       0.00000000 </v>
   <v>       0.00000000       0.00000000       0.00000000 </v>
  </generation>
  <varray name="kpointlist" >
   <v>       0.00000000       0.00000000       0.00000000 </v>
   <v>       0.02631579       0.00000000       0.00000000 </v>
   <v>       0.05263158       0.00000000       0.00000000 </v>
   <v>       0.07894737       0.00000000       0.00000000 </v>
   <v>       0.10526316       0.00000000       0.00000000 </v>
   <v>       0.13157895       0.00000000       0.00000000 </v>
   <v>       0.15789474       0.00000000       0.00000000 </v>
   <v>       0.18421053       0.00000000       0.00000000 </v>
   <v>       0.21052632       0.00000000       0.00000000 </v>
   <v>       0.23684211       0.00000000       0.00000000 </v>
   <v>       0.26315789       0.00000000       0.00000000 </v>
   <v>       0.28947368       0.00000000       0.00000000 </v>
   <v>       0.31578947       0.00000000       0.00000000 </v>
   <v>       0.34210526       0.00000000       0.00000000 </v>
   <v>       0.36842105       0.00000000       0.00000000 </v>
   <v>       0.39473684       0.00000000       0.00000000 </v>
   <v>       0.42105263       0.00000000       0.00000000 </v>
   <v>       0.44736842       0.00000000       0.00000000 </v>
   <v>       0.47368421       0.00000000       0.00000000 </v>
   <v>       0.50000000       0.00000000       0.00000000 </v>
   <v>       0.50000000       0.00000000       0.00000000 </v>
   <v>       0.49122807       0.01754386       0.00000000 </v>
   <v>       0.48245614       0.03508772       0.00000000 </v>
   <v>       0.47368421       0.05263158       0.00000000 </v>
   <v>       0.46491228       0.07017544       0.00000000 </v>
   <v>       0.45614035       0.08771930       0.00000000 </v>
   <v>       0.44736842       0.10526316       0.00000000 </v>
   <v>       0.43859649       0.12280702       0.00000000 </v>
   <v>       0.42982456       0.14035088       0.00000000 </v>
   <v>       0.42105263       0.15789474       0.00000000 </v>
   <v>       0.41228070       0.17543860       0.00000000 </v>
   <v>       0.40350877       0.19298246       0.00000000 </v>
   <v>       0.39473684       0.21052632       0.00000000 </v>
   <v>       0.38596491       0.22807018       0.00000000 </v>
   <v>       0.37719298       0.24561404       0.00000000 </v>
   <v>       0.36842105       0.26315789       0.00000000 </v>
   <v>       0.35964912       0.28070175       0.00000000 </v>
   <v>       0.35087719       0.29824561       0.00000000 </v>
   <v>       0.34210526       0.31578947       0.00000000 </v>
   <v>       0.33333333       0.33333333       0.00000000 </v>
   <v>       0.33333333       0.33333333       0.00000000 </v>
   <v>       0.31578947       0.31578947       0.00000000 </v>
   <v>       0.29824561       0.29824561       0.00000000 </v>
   <v>       0.28070175       0.28070175       0.00000000 </v>
   <v>       0.26315789       0.26315789       0.00000000 </v>
   <v>       0.24561404       0.24561404       0.00000000 </v>
   <v>       0.22807018       0.22807018       0.00000000 </v>
   <v>       0.21052632       0.21052632       0.00000000 </v>
   <v>       0.19298246       0.19298246       0.00000000 </v>
   <v>       0.17543860       0.17543860       0.00000000 </v>
   <v>       0.15789474       0.15789474       0.00000000 </v>
   <v>       0.14035088       0.14035088       0.00000000 </v>
   <v>       0.12280702       0.12280702       0.00000000 </v>
   <v>       0.10526316       0.10526316       0.00000000 </v>
   <v>       0.08771930       0.08771930       0.00000000 </v>
   <v>       0.07017544       0.07017544       0.00000000 </v>
   <v>       0.05263158       0.05263158       0.00000000 </v>
   <v>       0.03508772       0.03508772       0.00000000 </v>
   <v>       0.01754386       0.01754386       0.00000000 </v>
   <v>       0.00000000       0.00000000       0.00000000 </v>
  </varray>
  <varray name="weights" >
   <v>       0.01666667 </v>
   <v>       0.01666667 </v>
   <v>       0.01666667 </v>
   <v>       0.01666667 </v>
   <v>       0.01666667 </v>
   <v>       0.01666667 </v>
   <v>       0.01666667 </v>
   <v>       0.01666667 </v>
   <v>       0.01666667 </v>
   <v>       0.01666667 </v>
   <v>       0.01666667 </v>
   <v>       0.01666667 </v>
   <v>       0.01666667 </v>
   <v>       0.01666667 </v>
   <v>       0.01666667 </v>
   <v>       0.01666667 </v>
   <v>       0.01666667 </v>
   <v>       0.01666667 </v>
   <v>       0.01666667 </v>
   <v>       0.01666667 </v>
   <v>       0.01666667 </v>
   <v>       0.01666667 </v>
   <v>       0.01666667 </v>
   <v>       0.01666667 </v>
   <v>       0.01666667 </v>
   <v>       0.01666667 </v>
   <v>       0.01666667 </v>
   <v>       0.01666667 </v>
   <v>       0.01666667 </v>
   <v>       0.01666667 </v>
   <v>       0.01666667 </v>
   <v>       0.01666667 </v>
   <v>       0.01666667 </v>
   <v>       0.01666667 </v>
   <v>       0.01666667 </v>
   <v>       0.01666667 </v>
   <v>       0.01666667 </v>
   <v>       0.01666667 </v>
   <v>       0.01666667 </v>
   <v>       0.01666667 </v>
   <v>       0.01666667 </v>
   <v>       0.01666667 </v>
   <v>       0.01666667 </v>
   <v>       0.01666667 </v>
   <v>       0.01666667 </v>
   <v>       0.01666667 </v>
   <v>       0.01666667 </v>
   <v>       0.01666667 </v>
   <v>       0.01666667 </v>
   <v>       0.01666667 </v>
   <v>       0.01666667 </v>
   <v>       0.01666667 </v>
   <v>       0.01666667 </v>
   <v>       0.01666667 </v>
   <v>       0.01666667 </v>
   <v>       0.01666667 </v>
   <v>       0.01666667 </v>
   <v>       0.01666667 </v>
   <v>       0.01666667 </v>
   <v>       0.01666667 </v>
  </varray>
 </kpoints>
 <parameters>
  <separator name="general" >
   <i type="string" name="SYSTEM">Simulation for cell shape cell volume r</i>
   <i type="logical" name="LCOMPAT"> F  </i>
  </separator>
  <separator name="electronic" >
   <i type="string" name="PREC">high</i>
   <i name="ENMAX">    500.00000000</i>
   <i name="ENAUG">    644.87300000</i>
   <i name="EDIFF">      0.00001000</i>
   <i type="int" name="IALGO">    38</i>
   <i type="int" name="IWAVPR">    10</i>
   <i type="int" name="NBANDS">   224</i>
   <i name="NELECT">    324.00000000</i>
   <i type="int" name="TURBO">     0</i>
   <i type="int" name="IRESTART">     0</i>
   <i type="int" name="NREBOOT">     0</i>
   <i type="int" name="NMIN">     0</i>
   <i name="EREF">      0.00000000</i>
   <separator name="electronic smearing" >
    <i type="int" name="ISMEAR">     0</i>
    <i name="SIGMA">      0.01000000</i>
    <i name="KSPACING">      0.50000000</i>
    <i type="logical" name="KGAMMA"> T  </i>
   </separator>
   <separator name="electronic projectors" >
    <i type="logical" name="LREAL"> T  </i>
    <v name="ROPT">     -0.00040000     -0.00040000     -0.00040000</v>
    <i type="int" name="LMAXPAW">  -100</i>
    <i type="int" name="LMAXMIX">     2</i>
    <i type="logical" name="NLSPLINE"> F  </i>
   </separator>
   <separator name="electronic startup" >
    <i type="int" name="ISTART">     1</i>
    <i type="int" name="ICHARG">    11</i>
    <i type="int" name="INIWAV">     1</i>
   </separator>
   <separator name="electronic spin" >
    <i type="int" name="ISPIN">     1</i>
    <i type="logical" name="LNONCOLLINEAR"> F  </i>
    <v name="MAGMOM">      1.00000000      1.00000000      1.00000000      1.00000000      1.00000000      1.00000000      1.00000000      1.00000000      1.00000000      1.00000000      1.00000000      1.00000000      1.00000000      1.00000000      1.00000000      1.00000000      1.00000000      1.00000000      1.00000000      1.00000000
      1.00000000      1.00000000      1.00000000      1.00000000      1.00000000      1.00000000      1.00000000      1.00000000      1.00000000      1.00000000      1.00000000      1.00000000      1.00000000      1.00000000      1.00000000      1.00000000      1.00000000      1.00000000      1.00000000      1.00000000
      1.00000000      1.00000000      1.00000000      1.00000000      1.00000000      1.00000000      1.00000000      1.00000000      1.00000000      1.00000000      1.00000000      1.00000000      1.00000000      1.00000000      1.00000000      1.00000000      1.00000000      1.00000000      1.00000000      1.00000000
      1.00000000      1.00000000      1.00000000      1.00000000      1.00000000      1.00000000      1.00000000      1.00000000      1.00000000      1.00000000      1.00000000      1.00000000      1.00000000      1.00000000      1.00000000      1.00000000      1.00000000      1.00000000      1.00000000      1.00000000
      1.00000000      1.00000000      1.00000000      1.00000000      1.00000000      1.00000000      1.00000000      1.00000000      1.00000000      1.00000000      1.00000000      1.00000000      1.00000000      1.00000000      1.00000000      1.00000000      1.00000000      1.00000000      1.00000000      1.00000000
      1.00000000      1.00000000      1.00000000      1.00000000      1.00000000      1.00000000      1.00000000      1.00000000</v>
    <i name="NUPDOWN">     -1.00000000</i>
    <i type="logical" name="LSORBIT"> F  </i>
    <v name="SAXIS">      0.00000000      0.00000000      1.00000000</v>
    <i type="logical" name="LSPIRAL"> F  </i>
    <v name="QSPIRAL">      0.00000000      0.00000000      0.00000000</v>
    <i type="logical" name="LZEROZ"> F  </i>
   </separator>
   <separator name="electronic exchange-correlation" >
    <i type="logical" name="LASPH"> F  </i>
    <i type="logical" name="LMETAGGA"> F  </i>
   </separator>
   <separator name="electronic convergence" >
    <i type="int" name="NELM">   200</i>
    <i type="int" name="NELMDL">     0</i>
    <i type="int" name="NELMIN">     2</i>
    <i name="ENINI">    500.00000000</i>
    <separator name="electronic convergence detail" >
     <i type="logical" name="LDIAG"> T  </i>
     <i type="logical" name="LSUBROT"> F  </i>
     <i name="WEIMIN">      0.00000000</i>
     <i name="EBREAK">      0.00000001</i>
     <i name="DEPER">      0.30000000</i>
     <i type="int" name="NRMM">     4</i>
     <i name="TIME">      0.40000000</i>
    </separator>
   </separator>
   <separator name="electronic mixer" >
    <i name="AMIX">      0.40000000</i>
    <i name="BMIX">      1.00000000</i>
    <i name="AMIN">      0.10000000</i>
    <i name="AMIX_MAG">      1.60000000</i>
    <i name="BMIX_MAG">      1.00000000</i>
    <separator name="electronic mixer details" >
     <i type="int" name="IMIX">     4</i>
     <i type="logical" name="MIXFIRST"> F  </i>
     <i type="int" name="MAXMIX">   -45</i>
     <i name="WC">    100.00000000</i>
     <i type="int" name="INIMIX">     1</i>
     <i type="int" name="MIXPRE">     1</i>
     <i type="int" name="MREMOVE">     5</i>
    </separator>
   </separator>
   <separator name="electronic dipolcorrection" >
    <i type="logical" name="LDIPOL"> F  </i>
    <i type="logical" name="LMONO"> F  </i>
    <i type="int" name="IDIPOL">     0</i>
    <i name="EPSILON">      1.00000000</i>
    <v name="DIPOL">   -100.00000000   -100.00000000   -100.00000000</v>
    <i name="EFIELD">      0.00000000</i>
   </separator>
  </separator>
  <separator name="grids" >
   <i type="int" name="NGX">   224</i>
   <i type="int" name="NGY">   224</i>
   <i type="int" name="NGZ">   150</i>
   <i type="int" name="NGXF">   336</i>
   <i type="int" name="NGYF">   336</i>
   <i type="int" name="NGZF">   224</i>
   <i type="logical" name="ADDGRID"> F  </i>
  </separator>
  <separator name="ionic" >
   <i type="int" name="NSW">     0</i>
   <i type="int" name="IBRION">    -1</i>
   <i type="int" name="MDALGO">     0</i>
   <i type="int" name="ISIF">     2</i>
   <i name="PSTRESS">      0.00000000</i>
   <i name="EDIFFG">     -0.01000000</i>
   <i type="int" name="NFREE">     0</i>
   <i name="POTIM">      0.30000000</i>
   <i name="SMASS">     -3.00000000</i>
   <i name="SCALEE">      1.00000000</i>
  </separator>
  <separator name="ionic md" >
   <i name="TEBEG">      0.00010000</i>
   <i name="TEEND">      0.00010000</i>
   <i type="int" name="NBLOCK">     1</i>
   <i type="int" name="KBLOCK">     1</i>
   <i type="int" name="NPACO">   256</i>
   <i name="APACO">     16.00000000</i>
  </separator>
  <separator name="symmetry" >
   <i type="int" name="ISYM">     2</i>
   <i name="SYMPREC">      0.00001000</i>
  </separator>
  <separator name="dos" >
   <i type="int" name="LORBIT">     0</i>
   <v name="RWIGS">     -1.00000000     -1.00000000     -1.00000000</v>
   <i type="int" name="NEDOS">   301</i>
   <i name="EMIN">     10.00000000</i>
   <i name="EMAX">    -10.00000000</i>
   <i name="EFERMI">      0.00000000</i>
  </separator>
  <separator name="writing" >
   <i type="int" name="NWRITE">     0</i>
   <i type="logical" name="LWAVE"> F  </i>
   <i type="logical" name="LDOWNSAMPLE"> F  </i>
   <i type="logical" name="LCHARG"> F  </i>
   <i type="logical" name="LPARD"> F  </i>
   <i type="logical" name="LVTOT"> F  </i>
   <i type="logical" name="LVHAR"> F  </i>
   <i type="logical" name="LELF"> F  </i>
   <i type="logical" name="LOPTICS"> F  </i>
   <v name="STM">      0.00000000      0.00000000      0.00000000      0.00000000      0.00000000      0.00000000      0.00000000</v>
  </separator>
  <separator name="performance" >
   <i type="int" name="NPAR">    16</i>
   <i type="int" name="NSIM">     4</i>
   <i type="int" name="NBLK">    -1</i>
   <i type="logical" name="LPLANE"> T  </i>
   <i type="logical" name="LSCALAPACK"> T  </i>
   <i type="logical" name="LSCAAWARE"> F  </i>
   <i type="logical" name="LSCALU"> F  </i>
   <i type="logical" name="LASYNC"> F  </i>
   <i type="logical" name="LORBITALREAL"> F  </i>
  </separator>
  <separator name="miscellaneous" >
   <i type="int" name="IDIOT">     3</i>
   <i type="int" name="ISPECIAL">     0</i>
   <i type="logical" name="LMUSIC"> F  </i>
   <v name="POMASS">     14.00100000      1.00000000     12.01100000</v>
   <v name="DARWINR">      0.00000000      0.00000000      0.00000000</v>
   <v name="DARWINV">      1.00000000      1.00000000      1.00000000</v>
   <i type="logical" name="LCORR"> T  </i>
  </separator>
  <i type="logical" name="GGA_COMPAT"> T  </i>
  <i type="logical" name="LBERRY"> F  </i>
  <i type="int" name="ICORELEVEL">     0</i>
  <i type="logical" name="LDAU"> F  </i>
  <i type="int" name="I_CONSTRAINED_M">     0</i>
  <separator name="electronic exchange-correlation" >
   <i type="string" name="GGA">PE</i>
   <i type="int" name="VOSKOWN">     0</i>
   <i type="logical" name="LHFCALC"> F  </i>
   <i type="string" name="PRECFOCK"></i>
   <i type="logical" name="LSYMGRAD"> F  </i>
   <i type="logical" name="LHFONE"> F  </i>
   <i type="logical" name="LRHFCALC"> F  </i>
   <i type="logical" name="LTHOMAS"> F  </i>
   <i type="logical" name="LMODELHF"> F  </i>
   <i name="ENCUT4O">     -1.00000000</i>
   <i type="int" name="EXXOEP">     0</i>
   <i type="int" name="FOURORBIT">     0</i>
   <i name="AEXX">      0.00000000</i>
   <i name="HFALPHA">      0.00000000</i>
   <i name="MCALPHA">      0.00000000</i>
   <i name="ALDAX">      1.00000000</i>
   <i name="AGGAX">      1.00000000</i>
   <i name="ALDAC">      1.00000000</i>
   <i name="AGGAC">      1.00000000</i>
   <i type="int" name="NKREDX">     1</i>
   <i type="int" name="NKREDY">     1</i>
   <i type="int" name="NKREDZ">     1</i>
   <i type="logical" name="SHIFTRED"> F  </i>
   <i type="logical" name="ODDONLY"> F  </i>
   <i type="logical" name="EVENONLY"> F  </i>
   <i type="int" name="LMAXFOCK">     0</i>
   <i type="int" name="NMAXFOCKAE">     0</i>
   <i type="logical" name="LFOCKAEDFT"> F  </i>
   <i name="HFSCREEN">      0.00000000</i>
   <i name="HFSCREENC">      0.00000000</i>
   <i type="int" name="NBANDSGWLOW">     0</i>
  </separator>
  <separator name="vdW DFT" >
   <i type="logical" name="LUSE_VDW"> F  </i>
   <i name="Zab_VDW">     -0.84910000</i>
   <i name="PARAM1">      0.12340000</i>
   <i name="PARAM2">      1.00000000</i>
   <i name="PARAM3">      0.00000000</i>
  </separator>
  <separator name="model GW" >
   <i type="int" name="MODEL_GW">     0</i>
   <i name="MODEL_EPS0">     85.16106916</i>
   <i name="MODEL_ALPHA">      1.00000000</i>
  </separator>
  <separator name="linear response parameters" >
   <i type="logical" name="LEPSILON"> F  </i>
   <i type="logical" name="LRPA"> F  </i>
   <i type="logical" name="LNABLA"> F  </i>
   <i type="logical" name="LVEL"> F  </i>
   <i type="int" name="KINTER">     0</i>
   <i name="CSHIFT">      0.10000000</i>
   <i name="OMEGAMAX">     -1.00000000</i>
   <i name="DEG_THRESHOLD">      0.00200000</i>
   <i name="RTIME">     -0.10000000</i>
   <i name="WPLASMAI">      0.00000000</i>
   <v name="DFIELD">      0.00000000      0.00000000      0.00000000</v>
   <v name="WPLASMA">      0.00000000      0.00000000      0.00000000      0.00000000      0.00000000      0.00000000      0.00000000      0.00000000      0.00000000</v>
  </separator>
  <separator name="orbital magnetization" >
   <i type="logical" name="NUCIND"> F  </i>
   <v name="MAGPOS">      0.00000000      0.00000000      0.00000000</v>
   <i type="logical" name="LNICSALL"> T  </i>
   <i type="logical" name="ORBITALMAG"> F  </i>
   <i type="logical" name="LMAGBLOCH"> F  </i>
   <i type="logical" name="LCHIMAG"> F  </i>
   <i type="logical" name="LGAUGE"> T  </i>
   <i type="int" name="MAGATOM">     0</i>
   <v name="MAGDIPOL">      0.00000000      0.00000000      0.00000000</v>
   <v name="AVECCONST">      0.00000000      0.00000000      0.00000000</v>
  </separator>
  <separator name="response functions" >
   <i type="logical" name="LADDER"> F  </i>
   <i type="logical" name="LRPAFORCE"> F  </i>
   <i type="logical" name="LFXC"> F  </i>
   <i type="logical" name="LHARTREE"> T  </i>
   <i type="int" name="IBSE">     0</i>
   <v type="int" name="KPOINT">    -1     0     0     0</v>
   <i type="logical" name="LTCTE"> F  </i>
   <i type="logical" name="LTETE"> F  </i>
   <i type="logical" name="LTRIPLET"> F  </i>
   <i type="logical" name="LFXCEPS"> F  </i>
   <i type="logical" name="LFXHEG"> F  </i>
   <i type="int" name="NATURALO">     2</i>
   <i type="logical" name="L2ORDER"> F  </i>
   <i type="logical" name="LMP2LT"> F  </i>
   <i type="logical" name="LUSEW"> F  </i>
   <i name="ENCUTGW">     -2.00000000</i>
   <i name="ENCUTGWSOFT">     -2.00000000</i>
   <i name="ENCUTLF">     -1.00000000</i>
   <i type="int" name="LMAXMP2">    -1</i>
   <i name="SCISSOR">      0.00000000</i>
   <i type="int" name="NOMEGA">     0</i>
   <i type="int" name="NOMEGAR">     0</i>
   <i type="int" name="NBANDSGW">    -1</i>
   <i type="int" name="NBANDSO">    -1</i>
   <i type="int" name="NBANDSV">    -1</i>
   <i type="int" name="NELM">   200</i>
   <i type="int" name="NELMHF">     1</i>
   <i type="int" name="DIM">     3</i>
   <i type="int" name="ANTIRES">     0</i>
   <i name="OMEGAMAX">    -30.00000000</i>
   <i name="OMEGAMIN">    -30.00000000</i>
   <i name="OMEGATL">   -200.00000000</i>
   <i type="int" name="OMEGAGRID">   140</i>
   <i name="CSHIFT">     -0.10000000</i>
   <i type="logical" name="SELFENERGY"> F  </i>
   <i type="logical" name="LSPECTRAL"> F  </i>
   <i type="logical" name="LSPECTRALGW"> F  </i>
   <i type="logical" name="LSINGLES"> F  </i>
   <i type="logical" name="LFERMIGW"> F  </i>
   <i type="logical" name="ODDONLYGW"> F  </i>
   <i type="logical" name="EVENONLYGW"> F  </i>
   <i type="int" name="NKREDLFX">     1</i>
   <i type="int" name="NKREDLFY">     1</i>
   <i type="int" name="NKREDLFZ">     1</i>
   <i type="int" name="MAXMEM">  2800</i>
   <i type="int" name="TELESCOPE">     0</i>
   <i type="int" name="TAUPAR">     1</i>
   <i type="int" name="OMEGAPAR">    -1</i>
   <i name="LAMBDA">      1.00000000</i>
  </separator>
  <separator name="External order field" >
   <i name="OFIELD_KAPPA">      0.00000000</i>
   <v name="OFIELD_K">      0.00000000      0.00000000      0.00000000</v>
   <i name="OFIELD_Q6_NEAR">      0.00000000</i>
   <i name="OFIELD_Q6_FAR">      0.00000000</i>
   <i name="OFIELD_A">      0.00000000</i>
  </separator>
  <separator name="solvation model" >
   <i type="logical" name="LSOL"> F  </i>
  </separator>
 </parameters>
 <atominfo>
  <atoms>     108 </atoms>
  <types>       3 </types>
  <array name="atoms" >
   <dimension dim="1">ion</dimension>
   <field type="string">element</field>
   <field type="int">atomtype</field>
   <set>
    <rc><c>N </c><c>   1</c></rc>
    <rc><c>N </c><c>   1</c></rc>
    <rc><c>N </c><c>   1</c></rc>
    <rc><c>N </c><c>   1</c></rc>
    <rc><c>N </c><c>   1</c></rc>
    <rc><c>N </c><c>   1</c></rc>
    <rc><c>N </c><c>   1</c></rc>
    <rc><c>N </c><c>   1</c></rc>
    <rc><c>N </c><c>   1</c></rc>
    <rc><c>H </c><c>   2</c></rc>
    <rc><c>H </c><c>   2</c></rc>
    <rc><c>H </c><c>   2</c></rc>
    <rc><c>H </c><c>   2</c></rc>
    <rc><c>H </c><c>   2</c></rc>
    <rc><c>H </c><c>   2</c></rc>
    <rc><c>H </c><c>   2</c></rc>
    <rc><c>H </c><c>   2</c></rc>
    <rc><c>H </c><c>   2</c></rc>
    <rc><c>H </c><c>   2</c></rc>
    <rc><c>H </c><c>   2</c></rc>
    <rc><c>H </c><c>   2</c></rc>
    <rc><c>H </c><c>   2</c></rc>
    <rc><c>H </c><c>   2</c></rc>
    <rc><c>H </c><c>   2</c></rc>
    <rc><c>H </c><c>   2</c></rc>
    <rc><c>H </c><c>   2</c></rc>
    <rc><c>H </c><c>   2</c></rc>
    <rc><c>H </c><c>   2</c></rc>
    <rc><c>H </c><c>   2</c></rc>
    <rc><c>H </c><c>   2</c></rc>
    <rc><c>H </c><c>   2</c></rc>
    <rc><c>H </c><c>   2</c></rc>
    <rc><c>H </c><c>   2</c></rc>
    <rc><c>H </c><c>   2</c></rc>
    <rc><c>H </c><c>   2</c></rc>
    <rc><c>H </c><c>   2</c></rc>
    <rc><c>H </c><c>   2</c></rc>
    <rc><c>H </c><c>   2</c></rc>
    <rc><c>H </c><c>   2</c></rc>
    <rc><c>H </c><c>   2</c></rc>
    <rc><c>H </c><c>   2</c></rc>
    <rc><c>H </c><c>   2</c></rc>
    <rc><c>H </c><c>   2</c></rc>
    <rc><c>H </c><c>   2</c></rc>
    <rc><c>H </c><c>   2</c></rc>
    <rc><c>H </c><c>   2</c></rc>
    <rc><c>H </c><c>   2</c></rc>
    <rc><c>H </c><c>   2</c></rc>
    <rc><c>C </c><c>   3</c></rc>
    <rc><c>C </c><c>   3</c></rc>
    <rc><c>C </c><c>   3</c></rc>
    <rc><c>C </c><c>   3</c></rc>
    <rc><c>C </c><c>   3</c></rc>
    <rc><c>C </c><c>   3</c></rc>
    <rc><c>C </c><c>   3</c></rc>
    <rc><c>C </c><c>   3</c></rc>
    <rc><c>C </c><c>   3</c></rc>
    <rc><c>C </c><c>   3</c></rc>
    <rc><c>C </c><c>   3</c></rc>
    <rc><c>C </c><c>   3</c></rc>
    <rc><c>C </c><c>   3</c></rc>
    <rc><c>C </c><c>   3</c></rc>
    <rc><c>C </c><c>   3</c></rc>
    <rc><c>C </c><c>   3</c></rc>
    <rc><c>C </c><c>   3</c></rc>
    <rc><c>C </c><c>   3</c></rc>
    <rc><c>C </c><c>   3</c></rc>
    <rc><c>C </c><c>   3</c></rc>
    <rc><c>C </c><c>   3</c></rc>
    <rc><c>C </c><c>   3</c></rc>
    <rc><c>C </c><c>   3</c></rc>
    <rc><c>C </c><c>   3</c></rc>
    <rc><c>C </c><c>   3</c></rc>
    <rc><c>C </c><c>   3</c></rc>
    <rc><c>C </c><c>   3</c></rc>
    <rc><c>C </c><c>   3</c></rc>
    <rc><c>C </c><c>   3</c></rc>
    <rc><c>C </c><c>   3</c></rc>
    <rc><c>C </c><c>   3</c></rc>
    <rc><c>C </c><c>   3</c></rc>
    <rc><c>C </c><c>   3</c></rc>
    <rc><c>C </c><c>   3</c></rc>
    <rc><c>C </c><c>   3</c></rc>
    <rc><c>C </c><c>   3</c></rc>
    <rc><c>C </c><c>   3</c></rc>
    <rc><c>C </c><c>   3</c></rc>
    <rc><c>C </c><c>   3</c></rc>
    <rc><c>C </c><c>   3</c></rc>
    <rc><c>C </c><c>   3</c></rc>
    <rc><c>C </c><c>   3</c></rc>
    <rc><c>C </c><c>   3</c></rc>
    <rc><c>C </c><c>   3</c></rc>
    <rc><c>C </c><c>   3</c></rc>
    <rc><c>C </c><c>   3</c></rc>
    <rc><c>C </c><c>   3</c></rc>
    <rc><c>C </c><c>   3</c></rc>
    <rc><c>C </c><c>   3</c></rc>
    <rc><c>C </c><c>   3</c></rc>
    <rc><c>C </c><c>   3</c></rc>
    <rc><c>C </c><c>   3</c></rc>
    <rc><c>C </c><c>   3</c></rc>
    <rc><c>C </c><c>   3</c></rc>
    <rc><c>C </c><c>   3</c></rc>
    <rc><c>C </c><c>   3</c></rc>
    <rc><c>C </c><c>   3</c></rc>
    <rc><c>C </c><c>   3</c></rc>
    <rc><c>C </c><c>   3</c></rc>
    <rc><c>C </c><c>   3</c></rc>
   </set>
  </array>
  <array name="atomtypes" >
   <dimension dim="1">type</dimension>
   <field type="int">atomspertype</field>
   <field type="string">element</field>
   <field>mass</field>
   <field>valence</field>
   <field type="string">pseudopotential</field>
   <set>
    <rc><c>   9</c><c>N </c><c>     14.00100000</c><c>      5.00000000</c><c>  PAW_PBE N 08Apr2002                   </c></rc>
    <rc><c>  39</c><c>H </c><c>      1.00000000</c><c>      1.00000000</c><c>  PAW_PBE H 15Jun2001                   </c></rc>
    <rc><c>  60</c><c>C </c><c>     12.01100000</c><c>      4.00000000</c><c>  PAW_PBE C 08Apr2002                   </c></rc>
   </set>
  </array>
 </atominfo>
 <structure name="initialpos" >
  <crystal>
   <varray name="basis" >
    <v>      29.74938267       0.00482521       0.00000000 </v>
    <v>     -14.87051339      25.76113520       0.00000000 </v>
    <v>       0.00000000       0.00000000      20.00000000 </v>
   </varray>
   <i name="volume">  15328.99244890 </i>
   <varray name="rec_basis" >
    <v>       0.03361100       0.01940181       0.00000000 </v>
    <v>      -0.00000630       0.03881453       0.00000000 </v>
    <v>       0.00000000       0.00000000       0.05000000 </v>
   </varray>
  </crystal>
  <varray name="positions" >
   <v>       0.53469317       0.06029751       0.63273913 </v>
   <v>       0.51551512       0.03122447       0.45348942 </v>
   <v>       0.52765512       0.47498352       0.63344202 </v>
   <v>       0.94914932       0.48215499       0.63286971 </v>
   <v>       0.51692312       0.49288179       0.45405575 </v>
   <v>       0.49109865       0.51892114       0.45267085 </v>
   <v>       0.97799072       0.49101991       0.45355909 </v>
   <v>       0.02985144       0.51682806       0.45232489 </v>
   <v>       0.48941632       0.97935087       0.45236798 </v>
   <v>       0.51999707       0.04228661       0.67689197 </v>
   <v>       0.54845443       0.09904765       0.63099041 </v>
   <v>       0.48993484       0.12214632       0.50689888 </v>
   <v>       0.53681945       0.21685896       0.50434839 </v>
   <v>       0.63457431       0.12226274       0.50657654 </v>
   <v>       0.68221546       0.21694726       0.50337210 </v>
   <v>       0.79245360       0.32733000       0.50241067 </v>
   <v>       0.88716357       0.37509958       0.50526323 </v>
   <v>       0.79234581       0.47263133       0.50517064 </v>
   <v>       0.88701009       0.51960311       0.50835413 </v>
   <v>       0.68177980       0.47248254       0.50378946 </v>
   <v>       0.63375826       0.51921586       0.50696568 </v>
   <v>       0.48948106       0.37437064       0.50787107 </v>
   <v>       0.53669947       0.32689453       0.50424094 </v>
   <v>       0.57445535       0.29080855       0.50339290 </v>
   <v>       0.71851114       0.29098636       0.50416217 </v>
   <v>       0.71831922       0.43489920       0.50331080 </v>
   <v>       0.51745551       0.88881178       0.50707993 </v>
   <v>       0.47053430       0.79414079       0.50333597 </v>
   <v>       0.37293144       0.88886322       0.50497153 </v>
   <v>       0.32522908       0.79416114       0.50151433 </v>
   <v>       0.21498946       0.68377506       0.50303908 </v>
   <v>       0.12030425       0.63594258       0.50687048 </v>
   <v>       0.21515010       0.53851355       0.50141457 </v>
   <v>       0.12046237       0.49145051       0.50488051 </v>
   <v>       0.32531436       0.53856775       0.50232063 </v>
   <v>       0.37298462       0.49156496       0.50612772 </v>
   <v>       0.51757461       0.63604692       0.50601837 </v>
   <v>       0.47065559       0.68383370       0.50246912 </v>
   <v>       0.43296396       0.72022395       0.50170081 </v>
   <v>       0.28893768       0.72014433       0.50176251 </v>
   <v>       0.28906106       0.57621416       0.50198687 </v>
   <v>       0.52430234       0.48973894       0.67752292 </v>
   <v>       0.55244975       0.46098177       0.63183081 </v>
   <v>       0.47694263       0.52922883       0.61943801 </v>
   <v>       0.96724807       0.48566665       0.67700317 </v>
   <v>       0.91039602       0.45719672       0.63128048 </v>
   <v>       0.05404202       0.53319002       0.61905873 </v>
   <v>       0.48047069       0.95535323       0.61920057 </v>
   <v>       0.51848416       0.03239162       0.57463839 </v>
   <v>       0.52989976       0.05741674       0.51122852 </v>
   <v>       0.55873813       0.11515275       0.50752610 </v>
   <v>       0.64293094       0.28379040       0.50360799 </v>
   <v>       0.61660459       0.31193326       0.50343165 </v>
   <v>       0.64281808       0.36639504       0.50350205 </v>
   <v>       0.69728325       0.39273990       0.50339049 </v>
   <v>       0.72551553       0.36649536       0.50356717 </v>
   <v>       0.69738872       0.31202209       0.50372729 </v>
   <v>       0.61376536       0.39521709       0.50443306 </v>
   <v>       0.55910143       0.36913538       0.50528795 </v>
   <v>       0.53182963       0.39590489       0.50739404 </v>
   <v>       0.55809290       0.45028015       0.50826725 </v>
   <v>       0.61246862       0.47685113       0.50697871 </v>
   <v>       0.63955330       0.44986597       0.50501550 </v>
   <v>       0.61402544       0.22591658       0.50435407 </v>
   <v>       0.55937544       0.19716996       0.50512766 </v>
   <v>       0.53229324       0.14310220       0.50674163 </v>
   <v>       0.61311117       0.14315904       0.50645927 </v>
   <v>       0.63998383       0.19720517       0.50465152 </v>
   <v>       0.78338633       0.39546185       0.50430518 </v>
   <v>       0.81213919       0.36955266       0.50409913 </v>
   <v>       0.86619651       0.39649420       0.50582037 </v>
   <v>       0.89413036       0.45086026       0.50764541 </v>
   <v>       0.86612556       0.47725116       0.50750444 </v>
   <v>       0.81208391       0.45012058       0.50562966 </v>
   <v>       0.36449602       0.72729168       0.50169334 </v>
   <v>       0.39081030       0.69912901       0.50161408 </v>
   <v>       0.36456963       0.64466527       0.50172112 </v>
   <v>       0.31011394       0.61836733       0.50169086 </v>
   <v>       0.28190094       0.64461788       0.50167455 </v>
   <v>       0.31003999       0.69908444       0.50160907 </v>
   <v>       0.39349252       0.61571639       0.50270835 </v>
   <v>       0.44813288       0.64159451       0.50347858 </v>
   <v>       0.47522477       0.61462981       0.50563517 </v>
   <v>       0.44873627       0.56031776       0.50719224 </v>
   <v>       0.39443513       0.53391735       0.50571285 </v>
   <v>       0.36754613       0.56106862       0.50344876 </v>
   <v>       0.39338359       0.78515151       0.50270223 </v>
   <v>       0.44801509       0.81386601       0.50400283 </v>
   <v>       0.47510941       0.86790268       0.50627142 </v>
   <v>       0.44865161       0.89576696       0.50715146 </v>
   <v>       0.39436176       0.86793502       0.50504246 </v>
   <v>       0.36745818       0.81388546       0.50293912 </v>
   <v>       0.22404999       0.61563700       0.50259036 </v>
   <v>       0.19530020       0.64153170       0.50380099 </v>
   <v>       0.14126971       0.61455157       0.50608390 </v>
   <v>       0.11346957       0.56023493       0.50699095 </v>
   <v>       0.14134098       0.53380493       0.50489943 </v>
   <v>       0.19537803       0.56098103       0.50282107 </v>
   <v>       0.47742326       0.53129426       0.51131670 </v>
   <v>       0.48884952       0.51821118       0.57350667 </v>
   <v>       0.51572864       0.49082620       0.57522290 </v>
   <v>       0.52909461       0.47901506       0.51191179 </v>
   <v>       0.05578104       0.53142847       0.51100095 </v>
   <v>       0.03119113       0.52072847       0.57309021 </v>
   <v>       0.97694504       0.49371080       0.57468566 </v>
   <v>       0.95186084       0.47971251       0.51132600 </v>
   <v>       0.47758495       0.95346865       0.51110475 </v>
   <v>       0.49112721       0.97813606       0.57316549 </v>
  </varray>
 </structure>
 <calculation>
  <scstep>
   <time name="dav">  596.10  602.53</time>
   <time name="total">  596.37  602.80</time>
   <energy>
    <i name="alphaZ">     32.15174836 </i>
    <i name="ewald">  38486.93894917 </i>
    <i name="hartreedc"> -48003.33709158 </i>
    <i name="XCdc">   1111.61394776 </i>
    <i name="pawpsdc">  29832.03853652 </i>
    <i name="pawaedc"> -29886.66906642 </i>
    <i name="eentropy">     -0.00000000 </i>
    <i name="bandstr">  -4023.52914548 </i>
    <i name="atom">  11696.68971073 </i>
    <i name="e_fr_energy">   -754.10241093 </i>
    <i name="e_wo_entrp">   -754.10241093 </i>
    <i name="e_0_energy">   -754.10241093 </i>
   </energy>
  </scstep>
  <scstep>
   <time name="dav">  657.41  664.88</time>
   <time name="total">  657.41  664.89</time>
   <energy>
    <i name="e_fr_energy">   -754.46962544 </i>
    <i name="e_wo_entrp">   -754.46962544 </i>
    <i name="e_0_energy">   -754.46962544 </i>
   </energy>
  </scstep>
  <scstep>
   <time name="dav">  730.59  739.12</time>
   <time name="total">  730.60  739.12</time>
   <energy>
    <i name="e_fr_energy">   -754.48216885 </i>
    <i name="e_wo_entrp">   -754.48216885 </i>
    <i name="e_0_energy">   -754.48216885 </i>
   </energy>
  </scstep>
  <scstep>
   <time name="dav">  647.67  655.20</time>
   <time name="total">  647.67  655.21</time>
   <energy>
    <i name="e_fr_energy">   -754.48234867 </i>
    <i name="e_wo_entrp">   -754.48234867 </i>
    <i name="e_0_energy">   -754.48234867 </i>
   </energy>
  </scstep>
  <scstep>
   <time name="dav">  639.12  646.14</time>
   <time name="total">  639.12  646.14</time>
   <energy>
    <i name="e_fr_energy">   -754.48235897 </i>
    <i name="e_wo_entrp">   -754.48235897 </i>
    <i name="e_0_energy">   -754.48235897 </i>
   </energy>
  </scstep>
  <scstep>
   <time name="dav">  498.38  503.69</time>
   <time name="total">  498.38  503.69</time>
   <energy>
    <i name="alphaZ">     32.15174836 </i>
    <i name="ewald">  38486.93894917 </i>
    <i name="hartreedc"> -48003.33709158 </i>
    <i name="XCdc">   1111.61394776 </i>
    <i name="pawpsdc">  29832.03853652 </i>
    <i name="pawaedc"> -29886.66906642 </i>
    <i name="eentropy">     -0.00000000 </i>
    <i name="bandstr">  -4023.90909380 </i>
    <i name="atom">  11696.68971073 </i>
    <i name="e_fr_energy">   -754.48235924 </i>
    <i name="e_wo_entrp">   -754.48235924 </i>
    <i name="e_0_energy">   -754.48235924 </i>
   </energy>
  </scstep>
  <structure>
   <crystal>
    <varray name="basis" >
     <v>      29.74938267       0.00482521       0.00000000 </v>
     <v>     -14.87051339      25.76113520       0.00000000 </v>
     <v>       0.00000000       0.00000000      20.00000000 </v>
    </varray>
    <i name="volume">  15328.99244890 </i>
    <varray name="rec_basis" >
     <v>       0.03361100       0.01940181       0.00000000 </v>
     <v>      -0.00000630       0.03881453       0.00000000 </v>
     <v>       0.00000000       0.00000000       0.05000000 </v>
    </varray>
   </crystal>
   <varray name="positions" >
    <v>       0.53469317       0.06029751       0.63273913 </v>
    <v>       0.51551512       0.03122447       0.45348942 </v>
    <v>       0.52765512       0.47498352       0.63344202 </v>
    <v>       0.94914932       0.48215499       0.63286971 </v>
    <v>       0.51692312       0.49288179       0.45405575 </v>
    <v>       0.49109865       0.51892114       0.45267085 </v>
    <v>       0.97799072       0.49101991       0.45355909 </v>
    <v>       0.02985144       0.51682806       0.45232489 </v>
    <v>       0.48941632       0.97935087       0.45236798 </v>
    <v>       0.51999707       0.04228661       0.67689197 </v>
    <v>       0.54845443       0.09904765       0.63099041 </v>
    <v>       0.48993484       0.12214632       0.50689888 </v>
    <v>       0.53681945       0.21685896       0.50434839 </v>
    <v>       0.63457431       0.12226274       0.50657654 </v>
    <v>       0.68221546       0.21694726       0.50337210 </v>
    <v>       0.79245360       0.32733000       0.50241067 </v>
    <v>       0.88716357       0.37509958       0.50526323 </v>
    <v>       0.79234581       0.47263133       0.50517064 </v>
    <v>       0.88701009       0.51960311       0.50835413 </v>
    <v>       0.68177980       0.47248254       0.50378946 </v>
    <v>       0.63375826       0.51921586       0.50696568 </v>
    <v>       0.48948106       0.37437064       0.50787107 </v>
    <v>       0.53669947       0.32689453       0.50424094 </v>
    <v>       0.57445535       0.29080855       0.50339290 </v>
    <v>       0.71851114       0.29098636       0.50416217 </v>
    <v>       0.71831922       0.43489920       0.50331080 </v>
    <v>       0.51745551       0.88881178       0.50707993 </v>
    <v>       0.47053430       0.79414079       0.50333597 </v>
    <v>       0.37293144       0.88886322       0.50497153 </v>
    <v>       0.32522908       0.79416114       0.50151433 </v>
    <v>       0.21498946       0.68377506       0.50303908 </v>
    <v>       0.12030425       0.63594258       0.50687048 </v>
    <v>       0.21515010       0.53851355       0.50141457 </v>
    <v>       0.12046237       0.49145051       0.50488051 </v>
    <v>       0.32531436       0.53856775       0.50232063 </v>
    <v>       0.37298462       0.49156496       0.50612772 </v>
    <v>       0.51757461       0.63604692       0.50601837 </v>
    <v>       0.47065559       0.68383370       0.50246912 </v>
    <v>       0.43296396       0.72022395       0.50170081 </v>
    <v>       0.28893768       0.72014433       0.50176251 </v>
    <v>       0.28906106       0.57621416       0.50198687 </v>
    <v>       0.52430234       0.48973894       0.67752292 </v>
    <v>       0.55244975       0.46098177       0.63183081 </v>
    <v>       0.47694263       0.52922883       0.61943801 </v>
    <v>       0.96724807       0.48566665       0.67700317 </v>
    <v>       0.91039602       0.45719672       0.63128048 </v>
    <v>       0.05404202       0.53319002       0.61905873 </v>
    <v>       0.48047069       0.95535323       0.61920057 </v>
    <v>       0.51848416       0.03239162       0.57463839 </v>
    <v>       0.52989976       0.05741674       0.51122852 </v>
    <v>       0.55873813       0.11515275       0.50752610 </v>
    <v>       0.64293094       0.28379040       0.50360799 </v>
    <v>       0.61660459       0.31193326       0.50343165 </v>
    <v>       0.64281808       0.36639504       0.50350205 </v>
    <v>       0.69728325       0.39273990       0.50339049 </v>
    <v>       0.72551553       0.36649536       0.50356717 </v>
    <v>       0.69738872       0.31202209       0.50372729 </v>
    <v>       0.61376536       0.39521709       0.50443306 </v>
    <v>       0.55910143       0.36913538       0.50528795 </v>
    <v>       0.53182963       0.39590489       0.50739404 </v>
    <v>       0.55809290       0.45028015       0.50826725 </v>
    <v>       0.61246862       0.47685113       0.50697871 </v>
    <v>       0.63955330       0.44986597       0.50501550 </v>
    <v>       0.61402544       0.22591658       0.50435407 </v>
    <v>       0.55937544       0.19716996       0.50512766 </v>
    <v>       0.53229324       0.14310220       0.50674163 </v>
    <v>       0.61311117       0.14315904       0.50645927 </v>
    <v>       0.63998383       0.19720517       0.50465152 </v>
    <v>       0.78338633       0.39546185       0.50430518 </v>
    <v>       0.81213919       0.36955266       0.50409913 </v>
    <v>       0.86619651       0.39649420       0.50582037 </v>
    <v>       0.89413036       0.45086026       0.50764541 </v>
    <v>       0.86612556       0.47725116       0.50750444 </v>
    <v>       0.81208391       0.45012058       0.50562966 </v>
    <v>       0.36449602       0.72729168       0.50169334 </v>
    <v>       0.39081030       0.69912901       0.50161408 </v>
    <v>       0.36456963       0.64466527       0.50172112 </v>
    <v>       0.31011394       0.61836733       0.50169086 </v>
    <v>       0.28190094       0.64461788       0.50167455 </v>
    <v>       0.31003999       0.69908444       0.50160907 </v>
    <v>       0.39349252       0.61571639       0.50270835 </v>
    <v>       0.44813288       0.64159451       0.50347858 </v>
    <v>       0.47522477       0.61462981       0.50563517 </v>
    <v>       0.44873627       0.56031776       0.50719224 </v>
    <v>       0.39443513       0.53391735       0.50571285 </v>
    <v>       0.36754613       0.56106862       0.50344876 </v>
    <v>       0.39338359       0.78515151       0.50270223 </v>
    <v>       0.44801509       0.81386601       0.50400283 </v>
    <v>       0.47510941       0.86790268       0.50627142 </v>
    <v>       0.44865161       0.89576696       0.50715146 </v>
    <v>       0.39436176       0.86793502       0.50504246 </v>
    <v>       0.36745818       0.81388546       0.50293912 </v>
    <v>       0.22404999       0.61563700       0.50259036 </v>
    <v>       0.19530020       0.64153170       0.50380099 </v>
    <v>       0.14126971       0.61455157       0.50608390 </v>
    <v>       0.11346957       0.56023493       0.50699095 </v>
    <v>       0.14134098       0.53380493       0.50489943 </v>
    <v>       0.19537803       0.56098103       0.50282107 </v>
    <v>       0.47742326       0.53129426       0.51131670 </v>
    <v>       0.48884952       0.51821118       0.57350667 </v>
    <v>       0.51572864       0.49082620       0.57522290 </v>
    <v>       0.52909461       0.47901506       0.51191179 </v>
    <v>       0.05578104       0.53142847       0.51100095 </v>
    <v>       0.03119113       0.52072847       0.57309021 </v>
    <v>       0.97694504       0.49371080       0.57468566 </v>
    <v>       0.95186084       0.47971251       0.51132600 </v>
    <v>       0.47758495       0.95346865       0.51110475 </v>
    <v>       0.49112721       0.97813606       0.57316549 </v>
   </varray>
  </structure>
  <varray name="forces" >
   <v>      -0.00306897      -0.00485342      -0.00655055 </v>
   <v>       0.00083866       0.00087657       0.00212951 </v>
   <v>       0.00287868      -0.00344249      -0.00322248 </v>
   <v>      -0.00271531       0.00298151      -0.00173894 </v>
   <v>       0.00139459      -0.00095600       0.00004415 </v>
   <v>      -0.00139265       0.00148770      -0.00048102 </v>
   <v>      -0.00215789       0.00118610       0.00158579 </v>
   <v>       0.00288999      -0.00025680      -0.00133915 </v>
   <v>      -0.00229683      -0.00192750       0.00040046 </v>
   <v>       0.00173265       0.00004263       0.00071087 </v>
   <v>       0.00043216       0.00316677       0.00109935 </v>
   <v>       0.00101990       0.00059370      -0.00005001 </v>
   <v>       0.00051128      -0.00005270      -0.00079942 </v>
   <v>       0.00120011      -0.00006663       0.00115526 </v>
   <v>      -0.00153581      -0.00112778      -0.00003645 </v>
   <v>       0.00025656      -0.00052525      -0.00437661 </v>
   <v>      -0.00006525      -0.00036531      -0.00401871 </v>
   <v>      -0.00074051      -0.00015739       0.00522593 </v>
   <v>       0.00035582      -0.00121755       0.00458209 </v>
   <v>      -0.00173189      -0.00149265      -0.00194565 </v>
   <v>      -0.00025521      -0.00048253      -0.00116082 </v>
   <v>       0.00040630       0.00006346       0.00218723 </v>
   <v>      -0.00019771       0.00229419       0.00188511 </v>
   <v>       0.00234838       0.00072549      -0.00015526 </v>
   <v>       0.00111842      -0.00112764       0.00058100 </v>
   <v>      -0.00014647      -0.00022299      -0.00082711 </v>
   <v>      -0.00033744      -0.00013037       0.00347622 </v>
   <v>       0.00184827      -0.00104919       0.00222555 </v>
   <v>      -0.00131933       0.00125460      -0.00256365 </v>
   <v>       0.00093748       0.00056089      -0.00263134 </v>
   <v>       0.00020398      -0.00034612       0.00406499 </v>
   <v>      -0.00127617       0.00226783       0.00260442 </v>
   <v>      -0.00092651       0.00001120      -0.00315400 </v>
   <v>      -0.00276685       0.00152115      -0.00483175 </v>
   <v>      -0.00039182       0.00139651       0.00104991 </v>
   <v>      -0.00150390      -0.00041823       0.00070057 </v>
   <v>      -0.00086566      -0.00262916      -0.00149955 </v>
   <v>       0.00030074      -0.00082934      -0.00095193 </v>
   <v>      -0.00131991      -0.00165821       0.00081363 </v>
   <v>       0.00061981       0.00008358       0.00070022 </v>
   <v>      -0.00001831      -0.00004031       0.00055846 </v>
   <v>      -0.00006802       0.00026442       0.00098211 </v>
   <v>      -0.00277290       0.00264229       0.00028274 </v>
   <v>       0.00082310      -0.00289554      -0.00037591 </v>
   <v>      -0.00092023       0.00278538       0.00123041 </v>
   <v>       0.00111214       0.00052206       0.00022780 </v>
   <v>      -0.00174431       0.00126291      -0.00062694 </v>
   <v>       0.00099101      -0.00049381       0.00020825 </v>
   <v>       0.00156843       0.00109478       0.00101944 </v>
   <v>       0.00007327      -0.00010369      -0.00244037 </v>
   <v>       0.00249667       0.00007331       0.00062416 </v>
   <v>       0.00194996       0.00089352      -0.00009566 </v>
   <v>      -0.00386510      -0.00293707      -0.00050896 </v>
   <v>       0.00128489      -0.00062953      -0.00125868 </v>
   <v>      -0.00203910       0.00219534      -0.00099083 </v>
   <v>       0.00172311      -0.00291402      -0.00037752 </v>
   <v>       0.00028398       0.00125932       0.00059867 </v>
   <v>      -0.00147421      -0.00185832      -0.00001280 </v>
   <v>       0.00249117      -0.00091390       0.00071722 </v>
   <v>      -0.00051512      -0.00049808       0.00005742 </v>
   <v>      -0.00038575       0.00107540      -0.00084493 </v>
   <v>      -0.00172342      -0.00107201      -0.00092723 </v>
   <v>       0.00288495       0.00175729      -0.00026208 </v>
   <v>      -0.00479927       0.00212060      -0.00099281 </v>
   <v>      -0.00008865       0.00312137      -0.00035579 </v>
   <v>      -0.00211307      -0.00275234      -0.00000975 </v>
   <v>      -0.00044576      -0.00228556       0.00053307 </v>
   <v>       0.00620582       0.00033588      -0.00003551 </v>
   <v>      -0.00291443      -0.00287153       0.00069107 </v>
   <v>       0.00076325      -0.00157997      -0.00205032 </v>
   <v>       0.00088964      -0.00082225      -0.00281678 </v>
   <v>       0.00430992       0.00120472       0.00092448 </v>
   <v>      -0.00407967      -0.00009905       0.00103146 </v>
   <v>       0.00097464       0.00044703       0.00275902 </v>
   <v>      -0.00174837      -0.00249670       0.00068819 </v>
   <v>       0.00389664       0.00224276      -0.00031083 </v>
   <v>       0.00020464      -0.00161086       0.00047908 </v>
   <v>       0.00118394      -0.00123077       0.00222146 </v>
   <v>      -0.00195356       0.00081176      -0.00013960 </v>
   <v>      -0.00154546       0.00064940       0.00077483 </v>
   <v>      -0.00014586       0.00104498       0.00046043 </v>
   <v>      -0.00082846       0.00019003      -0.00069941 </v>
   <v>       0.00220417       0.00060392       0.00006013 </v>
   <v>      -0.00138532      -0.00148847       0.00047892 </v>
   <v>       0.00105061      -0.00378077       0.00085045 </v>
   <v>      -0.00362730      -0.00159756      -0.00033193 </v>
   <v>       0.00259736       0.00175743       0.00025710 </v>
   <v>      -0.00039326      -0.00017647       0.00133974 </v>
   <v>       0.00298410      -0.00177486       0.00112393 </v>
   <v>      -0.00136426      -0.00069280       0.00017632 </v>
   <v>       0.00156908      -0.00113278      -0.00206889 </v>
   <v>      -0.00229634       0.00095387      -0.00190712 </v>
   <v>       0.00159400       0.00088299       0.00022278 </v>
   <v>      -0.00236054       0.00008881       0.00252400 </v>
   <v>       0.00104798       0.00552873       0.00138108 </v>
   <v>      -0.00199724      -0.00056062       0.00051121 </v>
   <v>       0.00101521       0.00124796      -0.00222011 </v>
   <v>      -0.00138731       0.00139089      -0.00115118 </v>
   <v>       0.00439552      -0.00115479       0.00087887 </v>
   <v>      -0.00202796       0.00280869      -0.00263088 </v>
   <v>      -0.00001452       0.00069275       0.00306802 </v>
   <v>       0.00085135      -0.00197183       0.00021283 </v>
   <v>       0.00020743       0.00234250      -0.00099468 </v>
   <v>       0.00151000       0.00258924       0.00002152 </v>
   <v>       0.00045315       0.00113839       0.00383743 </v>
   <v>      -0.00234312      -0.00264845      -0.00221810 </v>
   <v>       0.00186957       0.00330743       0.00008609 </v>
   <v>       0.00164374      -0.00142204       0.00066759 </v>
  </varray>
  <varray name="stress" >
   <v>       0.00351302      -0.00494050       0.00195724 </v>
   <v>      -0.00494050      -0.00130617       0.00031001 </v>
   <v>       0.00195724       0.00031001      -0.13975228 </v>
  </varray>
  <energy>
   <i name="e_fr_energy">   -756.54362876 </i>
   <i name="e_wo_entrp">   -756.54362876 </i>
   <i name="e_0_energy">     -0.00000000 </i>
  </energy>
  <time name="totalsc"> 4469.00 4520.53</time>
  <eigenvalues>
   <array>
    <dimension dim="1">band</dimension>
    <dimension dim="2">kpoint</dimension>
    <dimension dim="3">spin</dimension>
    <field>eigene</field>
    <field>occ</field>
    <set>
     <set comment="spin 1">
      <set comment="kpoint 1">
       <r>  -24.8185    1.0000 </r>
       <r>  -24.8167    1.0000 </r>
       <r>  -24.8161    1.0000 </r>
       <r>  -23.3487    1.0000 </r>
       <r>  -23.3470    1.0000 </r>
       <r>  -23.3459    1.0000 </r>
       <r>  -21.8645    1.0000 </r>
       <r>  -21.5865    1.0000 </r>
       <r>  -21.5237    1.0000 </r>
       <r>  -21.5231    1.0000 </r>
       <r>  -21.2563    1.0000 </r>
       <r>  -21.2556    1.0000 </r>
       <r>  -21.1708    1.0000 </r>
       <r>  -20.8791    1.0000 </r>
       <r>  -20.3976    1.0000 </r>
       <r>  -20.3971    1.0000 </r>
       <r>  -20.0875    1.0000 </r>
       <r>  -19.7896    1.0000 </r>
       <r>  -19.7893    1.0000 </r>
       <r>  -19.5468    1.0000 </r>
       <r>  -19.2364    1.0000 </r>
       <r>  -19.2361    1.0000 </r>
       <r>  -19.0423    1.0000 </r>
       <r>  -19.0415    1.0000 </r>
       <r>  -18.5221    1.0000 </r>
       <r>  -18.5093    1.0000 </r>
       <r>  -18.5080    1.0000 </r>
       <r>  -18.4771    1.0000 </r>
       <r>  -18.2271    1.0000 </r>
       <r>  -18.2265    1.0000 </r>
       <r>  -18.1906    1.0000 </r>
       <r>  -17.9941    1.0000 </r>
       <r>  -17.8593    1.0000 </r>
       <r>  -17.8586    1.0000 </r>
       <r>  -17.4227    1.0000 </r>
       <r>  -17.4220    1.0000 </r>
       <r>  -16.2728    1.0000 </r>
       <r>  -16.2700    1.0000 </r>
       <r>  -16.2321    1.0000 </r>
       <r>  -16.0007    1.0000 </r>
       <r>  -15.9979    1.0000 </r>
       <r>  -15.9673    1.0000 </r>
       <r>  -15.5424    1.0000 </r>
       <r>  -15.5416    1.0000 </r>
       <r>  -15.1601    1.0000 </r>
       <r>  -15.1598    1.0000 </r>
       <r>  -15.0379    1.0000 </r>
       <r>  -14.8597    1.0000 </r>
       <r>  -14.7594    1.0000 </r>
       <r>  -14.6877    1.0000 </r>
       <r>  -14.6872    1.0000 </r>
       <r>  -14.4569    1.0000 </r>
       <r>  -14.4240    1.0000 </r>
       <r>  -14.4234    1.0000 </r>
       <r>  -13.9228    1.0000 </r>
       <r>  -13.9223    1.0000 </r>
       <r>  -13.6792    1.0000 </r>
       <r>  -13.6777    1.0000 </r>
       <r>  -13.6073    1.0000 </r>
       <r>  -13.5994    1.0000 </r>
       <r>  -13.5966    1.0000 </r>
       <r>  -13.3933    1.0000 </r>
       <r>  -13.2178    1.0000 </r>
       <r>  -13.1083    1.0000 </r>
       <r>  -13.1067    1.0000 </r>
       <r>  -12.7589    1.0000 </r>
       <r>  -12.6415    1.0000 </r>
       <r>  -12.6409    1.0000 </r>
       <r>  -12.0533    1.0000 </r>
       <r>  -11.9685    1.0000 </r>
       <r>  -11.9475    1.0000 </r>
       <r>  -11.9459    1.0000 </r>
       <r>  -11.9053    1.0000 </r>
       <r>  -11.7432    1.0000 </r>
       <r>  -11.6237    1.0000 </r>
       <r>  -11.6111    1.0000 </r>
       <r>  -11.3700    1.0000 </r>
       <r>  -11.3692    1.0000 </r>
       <r>  -11.3253    1.0000 </r>
       <r>  -11.3248    1.0000 </r>
       <r>  -11.0434    1.0000 </r>
       <r>  -11.0420    1.0000 </r>
       <r>  -10.9601    1.0000 </r>
       <r>  -10.8854    1.0000 </r>
       <r>  -10.8844    1.0000 </r>
       <r>  -10.7977    1.0000 </r>
       <r>  -10.7970    1.0000 </r>
       <r>  -10.6291    1.0000 </r>
       <r>  -10.6286    1.0000 </r>
       <r>  -10.4191    1.0000 </r>
       <r>  -10.4173    1.0000 </r>
       <r>  -10.3185    1.0000 </r>
       <r>  -10.3180    1.0000 </r>
       <r>  -10.1850    1.0000 </r>
       <r>  -10.1503    1.0000 </r>
       <r>  -10.1497    1.0000 </r>
       <r>  -10.0778    1.0000 </r>
       <r>  -10.0141    1.0000 </r>
       <r>  -10.0120    1.0000 </r>
       <r>   -9.9992    1.0000 </r>
       <r>   -9.9226    1.0000 </r>
       <r>   -9.8892    1.0000 </r>
       <r>   -9.8563    1.0000 </r>
       <r>   -9.8096    1.0000 </r>
       <r>   -9.8073    1.0000 </r>
       <r>   -9.6779    1.0000 </r>
       <r>   -9.6766    1.0000 </r>
       <r>   -9.6576    1.0000 </r>
       <r>   -9.5677    1.0000 </r>
       <r>   -9.2765    1.0000 </r>
       <r>   -9.2751    1.0000 </r>
       <r>   -8.9756    1.0000 </r>
       <r>   -8.9751    1.0000 </r>
       <r>   -8.9172    1.0000 </r>
       <r>   -8.9162    1.0000 </r>
       <r>   -8.8580    1.0000 </r>
       <r>   -8.7056    1.0000 </r>
       <r>   -8.7049    1.0000 </r>
       <r>   -8.6576    1.0000 </r>
       <r>   -8.6189    1.0000 </r>
       <r>   -8.5822    1.0000 </r>
       <r>   -8.5809    1.0000 </r>
       <r>   -8.5798    1.0000 </r>
       <r>   -8.4685    1.0000 </r>
       <r>   -8.4682    1.0000 </r>
       <r>   -8.3450    1.0000 </r>
       <r>   -8.1895    1.0000 </r>
       <r>   -8.1892    1.0000 </r>
       <r>   -8.1696    1.0000 </r>
       <r>   -7.8975    1.0000 </r>
       <r>   -7.8240    1.0000 </r>
       <r>   -7.8233    1.0000 </r>
       <r>   -7.5497    1.0000 </r>
       <r>   -7.5488    1.0000 </r>
       <r>   -7.3861    1.0000 </r>
       <r>   -7.3851    1.0000 </r>
       <r>   -7.0703    1.0000 </r>
       <r>   -7.0693    1.0000 </r>
       <r>   -6.7533    1.0000 </r>
       <r>   -6.6708    1.0000 </r>
       <r>   -6.6700    1.0000 </r>
       <r>   -6.6684    1.0000 </r>
       <r>   -6.6593    1.0000 </r>
       <r>   -6.6589    1.0000 </r>
       <r>   -6.3957    1.0000 </r>
       <r>   -6.3945    1.0000 </r>
       <r>   -6.3831    1.0000 </r>
       <r>   -6.1404    1.0000 </r>
       <r>   -6.0986    1.0000 </r>
       <r>   -6.0981    1.0000 </r>
       <r>   -6.0860    1.0000 </r>
       <r>   -5.8136    1.0000 </r>
       <r>   -5.5308    1.0000 </r>
       <r>   -5.5258    1.0000 </r>
       <r>   -5.5238    1.0000 </r>
       <r>   -5.4854    1.0000 </r>
       <r>   -5.4798    1.0000 </r>
       <r>   -5.1755    1.0000 </r>
       <r>   -5.1750    1.0000 </r>
       <r>   -4.7021    1.0000 </r>
       <r>   -4.6958    1.0000 </r>
       <r>   -4.6933    1.0000 </r>
       <r>   -2.2495    0.0000 </r>
       <r>   -2.2491    0.0000 </r>
       <r>   -1.9517    0.0000 </r>
       <r>   -1.9506    0.0000 </r>
       <r>   -1.7762    0.0000 </r>
       <r>   -1.7478    0.0000 </r>
       <r>   -1.7453    0.0000 </r>
       <r>   -1.5534    0.0000 </r>
       <r>   -1.2323    0.0000 </r>
       <r>   -1.2105    0.0000 </r>
       <r>   -1.1924    0.0000 </r>
       <r>   -1.1918    0.0000 </r>
       <r>   -1.1471    0.0000 </r>
       <r>   -1.1433    0.0000 </r>
       <r>   -1.1323    0.0000 </r>
       <r>   -0.8414    0.0000 </r>
       <r>   -0.8256    0.0000 </r>
       <r>   -0.8238    0.0000 </r>
       <r>   -0.6788    0.0000 </r>
       <r>   -0.5834    0.0000 </r>
       <r>   -0.5831    0.0000 </r>
       <r>   -0.3239    0.0000 </r>
       <r>   -0.2058    0.0000 </r>
       <r>   -0.1624    0.0000 </r>
       <r>   -0.1610    0.0000 </r>
       <r>   -0.0199    0.0000 </r>
       <r>   -0.0197    0.0000 </r>
       <r>    0.0019    0.0000 </r>
       <r>    0.0046    0.0000 </r>
       <r>    0.1657    0.0000 </r>
       <r>    0.1821    0.0000 </r>
       <r>    0.1826    0.0000 </r>
       <r>    0.3309    0.0000 </r>
       <r>    0.3422    0.0000 </r>
       <r>    0.3456    0.0000 </r>
       <r>    0.3541    0.0000 </r>
       <r>    0.3560    0.0000 </r>
       <r>    0.3628    0.0000 </r>
       <r>    0.4424    0.0000 </r>
       <r>    0.5114    0.0000 </r>
       <r>    0.5159    0.0000 </r>
       <r>    0.5180    0.0000 </r>
       <r>    0.6193    0.0000 </r>
       <r>    0.6780    0.0000 </r>
       <r>    0.7016    0.0000 </r>
       <r>    0.7104    0.0000 </r>
       <r>    0.7151    0.0000 </r>
       <r>    0.7558    0.0000 </r>
       <r>    0.7587    0.0000 </r>
       <r>    0.7913    0.0000 </r>
       <r>    0.7950    0.0000 </r>
       <r>    0.8143    0.0000 </r>
       <r>    0.8413    0.0000 </r>
       <r>    0.8509    0.0000 </r>
       <r>    0.8533    0.0000 </r>
       <r>    0.8560    0.0000 </r>
       <r>    0.8782    0.0000 </r>
       <r>    0.8799    0.0000 </r>
       <r>    0.9026    0.0000 </r>
       <r>    0.9643    0.0000 </r>
       <r>    0.9692    0.0000 </r>
       <r>    0.9918    0.0000 </r>
      </set>
      <set comment="kpoint 2">
       <r>  -24.8185    1.0000 </r>
       <r>  -24.8167    1.0000 </r>
       <r>  -24.8161    1.0000 </r>
       <r>  -23.3487    1.0000 </r>
       <r>  -23.3470    1.0000 </r>
       <r>  -23.3459    1.0000 </r>
       <r>  -21.8645    1.0000 </r>
       <r>  -21.5866    1.0000 </r>
       <r>  -21.5237    1.0000 </r>
       <r>  -21.5229    1.0000 </r>
       <r>  -21.2567    1.0000 </r>
       <r>  -21.2557    1.0000 </r>
       <r>  -21.1701    1.0000 </r>
       <r>  -20.8794    1.0000 </r>
       <r>  -20.3976    1.0000 </r>
       <r>  -20.3967    1.0000 </r>
       <r>  -20.0882    1.0000 </r>
       <r>  -19.7893    1.0000 </r>
       <r>  -19.7890    1.0000 </r>
       <r>  -19.5470    1.0000 </r>
       <r>  -19.2363    1.0000 </r>
       <r>  -19.2361    1.0000 </r>
       <r>  -19.0424    1.0000 </r>
       <r>  -19.0417    1.0000 </r>
       <r>  -18.5218    1.0000 </r>
       <r>  -18.5090    1.0000 </r>
       <r>  -18.5080    1.0000 </r>
       <r>  -18.4771    1.0000 </r>
       <r>  -18.2271    1.0000 </r>
       <r>  -18.2265    1.0000 </r>
       <r>  -18.1906    1.0000 </r>
       <r>  -17.9961    1.0000 </r>
       <r>  -17.8591    1.0000 </r>
       <r>  -17.8568    1.0000 </r>
       <r>  -17.4227    1.0000 </r>
       <r>  -17.4222    1.0000 </r>
       <r>  -16.2728    1.0000 </r>
       <r>  -16.2700    1.0000 </r>
       <r>  -16.2321    1.0000 </r>
       <r>  -16.0007    1.0000 </r>
       <r>  -15.9979    1.0000 </r>
       <r>  -15.9674    1.0000 </r>
       <r>  -15.5423    1.0000 </r>
       <r>  -15.5413    1.0000 </r>
       <r>  -15.1605    1.0000 </r>
       <r>  -15.1601    1.0000 </r>
       <r>  -15.0379    1.0000 </r>
       <r>  -14.8591    1.0000 </r>
       <r>  -14.7594    1.0000 </r>
       <r>  -14.6877    1.0000 </r>
       <r>  -14.6873    1.0000 </r>
       <r>  -14.4571    1.0000 </r>
       <r>  -14.4240    1.0000 </r>
       <r>  -14.4233    1.0000 </r>
       <r>  -13.9228    1.0000 </r>
       <r>  -13.9223    1.0000 </r>
       <r>  -13.6792    1.0000 </r>
       <r>  -13.6777    1.0000 </r>
       <r>  -13.6073    1.0000 </r>
       <r>  -13.5994    1.0000 </r>
       <r>  -13.5966    1.0000 </r>
       <r>  -13.3933    1.0000 </r>
       <r>  -13.2179    1.0000 </r>
       <r>  -13.1082    1.0000 </r>
       <r>  -13.1065    1.0000 </r>
       <r>  -12.7601    1.0000 </r>
       <r>  -12.6413    1.0000 </r>
       <r>  -12.6399    1.0000 </r>
       <r>  -12.0534    1.0000 </r>
       <r>  -11.9689    1.0000 </r>
       <r>  -11.9472    1.0000 </r>
       <r>  -11.9457    1.0000 </r>
       <r>  -11.9053    1.0000 </r>
       <r>  -11.7432    1.0000 </r>
       <r>  -11.6238    1.0000 </r>
       <r>  -11.6111    1.0000 </r>
       <r>  -11.3701    1.0000 </r>
       <r>  -11.3692    1.0000 </r>
       <r>  -11.3252    1.0000 </r>
       <r>  -11.3247    1.0000 </r>
       <r>  -11.0433    1.0000 </r>
       <r>  -11.0419    1.0000 </r>
       <r>  -10.9601    1.0000 </r>
       <r>  -10.8856    1.0000 </r>
       <r>  -10.8847    1.0000 </r>
       <r>  -10.7974    1.0000 </r>
       <r>  -10.7969    1.0000 </r>
       <r>  -10.6292    1.0000 </r>
       <r>  -10.6287    1.0000 </r>
       <r>  -10.4194    1.0000 </r>
       <r>  -10.4172    1.0000 </r>
       <r>  -10.3182    1.0000 </r>
       <r>  -10.3180    1.0000 </r>
       <r>  -10.1850    1.0000 </r>
       <r>  -10.1505    1.0000 </r>
       <r>  -10.1502    1.0000 </r>
       <r>  -10.0773    1.0000 </r>
       <r>  -10.0171    1.0000 </r>
       <r>  -10.0124    1.0000 </r>
       <r>   -9.9957    1.0000 </r>
       <r>   -9.9226    1.0000 </r>
       <r>   -9.8891    1.0000 </r>
       <r>   -9.8563    1.0000 </r>
       <r>   -9.8095    1.0000 </r>
       <r>   -9.8073    1.0000 </r>
       <r>   -9.6780    1.0000 </r>
       <r>   -9.6767    1.0000 </r>
       <r>   -9.6577    1.0000 </r>
       <r>   -9.5677    1.0000 </r>
       <r>   -9.2765    1.0000 </r>
       <r>   -9.2751    1.0000 </r>
       <r>   -8.9756    1.0000 </r>
       <r>   -8.9751    1.0000 </r>
       <r>   -8.9172    1.0000 </r>
       <r>   -8.9162    1.0000 </r>
       <r>   -8.8579    1.0000 </r>
       <r>   -8.7056    1.0000 </r>
       <r>   -8.7049    1.0000 </r>
       <r>   -8.6576    1.0000 </r>
       <r>   -8.6191    1.0000 </r>
       <r>   -8.5824    1.0000 </r>
       <r>   -8.5808    1.0000 </r>
       <r>   -8.5798    1.0000 </r>
       <r>   -8.4684    1.0000 </r>
       <r>   -8.4679    1.0000 </r>
       <r>   -8.3450    1.0000 </r>
       <r>   -8.1897    1.0000 </r>
       <r>   -8.1892    1.0000 </r>
       <r>   -8.1694    1.0000 </r>
       <r>   -7.8976    1.0000 </r>
       <r>   -7.8240    1.0000 </r>
       <r>   -7.8232    1.0000 </r>
       <r>   -7.5497    1.0000 </r>
       <r>   -7.5489    1.0000 </r>
       <r>   -7.3861    1.0000 </r>
       <r>   -7.3851    1.0000 </r>
       <r>   -7.0703    1.0000 </r>
       <r>   -7.0693    1.0000 </r>
       <r>   -6.7532    1.0000 </r>
       <r>   -6.6709    1.0000 </r>
       <r>   -6.6701    1.0000 </r>
       <r>   -6.6684    1.0000 </r>
       <r>   -6.6593    1.0000 </r>
       <r>   -6.6589    1.0000 </r>
       <r>   -6.3957    1.0000 </r>
       <r>   -6.3945    1.0000 </r>
       <r>   -6.3831    1.0000 </r>
       <r>   -6.1403    1.0000 </r>
       <r>   -6.0986    1.0000 </r>
       <r>   -6.0981    1.0000 </r>
       <r>   -6.0860    1.0000 </r>
       <r>   -5.8137    1.0000 </r>
       <r>   -5.5308    1.0000 </r>
       <r>   -5.5258    1.0000 </r>
       <r>   -5.5238    1.0000 </r>
       <r>   -5.4854    1.0000 </r>
       <r>   -5.4798    1.0000 </r>
       <r>   -5.1755    1.0000 </r>
       <r>   -5.1750    1.0000 </r>
       <r>   -4.7021    1.0000 </r>
       <r>   -4.6958    1.0000 </r>
       <r>   -4.6933    1.0000 </r>
       <r>   -2.2495    0.0000 </r>
       <r>   -2.2491    0.0000 </r>
       <r>   -1.9517    0.0000 </r>
       <r>   -1.9506    0.0000 </r>
       <r>   -1.7762    0.0000 </r>
       <r>   -1.7479    0.0000 </r>
       <r>   -1.7453    0.0000 </r>
       <r>   -1.5534    0.0000 </r>
       <r>   -1.2323    0.0000 </r>
       <r>   -1.2105    0.0000 </r>
       <r>   -1.1924    0.0000 </r>
       <r>   -1.1917    0.0000 </r>
       <r>   -1.1471    0.0000 </r>
       <r>   -1.1433    0.0000 </r>
       <r>   -1.1323    0.0000 </r>
       <r>   -0.8414    0.0000 </r>
       <r>   -0.8256    0.0000 </r>
       <r>   -0.8238    0.0000 </r>
       <r>   -0.6788    0.0000 </r>
       <r>   -0.5834    0.0000 </r>
       <r>   -0.5832    0.0000 </r>
       <r>   -0.3237    0.0000 </r>
       <r>   -0.2059    0.0000 </r>
       <r>   -0.1623    0.0000 </r>
       <r>   -0.1609    0.0000 </r>
       <r>   -0.0200    0.0000 </r>
       <r>   -0.0197    0.0000 </r>
       <r>    0.0018    0.0000 </r>
       <r>    0.0045    0.0000 </r>
       <r>    0.1648    0.0000 </r>
       <r>    0.1822    0.0000 </r>
       <r>    0.1838    0.0000 </r>
       <r>    0.3297    0.0000 </r>
       <r>    0.3419    0.0000 </r>
       <r>    0.3452    0.0000 </r>
       <r>    0.3525    0.0000 </r>
       <r>    0.3573    0.0000 </r>
       <r>    0.3653    0.0000 </r>
       <r>    0.4425    0.0000 </r>
       <r>    0.5115    0.0000 </r>
       <r>    0.5159    0.0000 </r>
       <r>    0.5180    0.0000 </r>
       <r>    0.6192    0.0000 </r>
       <r>    0.6779    0.0000 </r>
       <r>    0.6988    0.0000 </r>
       <r>    0.7117    0.0000 </r>
       <r>    0.7151    0.0000 </r>
       <r>    0.7567    0.0000 </r>
       <r>    0.7591    0.0000 </r>
       <r>    0.7898    0.0000 </r>
       <r>    0.7944    0.0000 </r>
       <r>    0.8149    0.0000 </r>
       <r>    0.8407    0.0000 </r>
       <r>    0.8485    0.0000 </r>
       <r>    0.8531    0.0000 </r>
       <r>    0.8588    0.0000 </r>
       <r>    0.8790    0.0000 </r>
       <r>    0.8810    0.0000 </r>
       <r>    0.9035    0.0000 </r>
       <r>    0.9646    0.0000 </r>
       <r>    0.9695    0.0000 </r>
       <r>    0.9907    0.0000 </r>
      </set>
      <set comment="kpoint 3">
       <r>  -24.8185    1.0000 </r>
       <r>  -24.8167    1.0000 </r>
       <r>  -24.8161    1.0000 </r>
       <r>  -23.3487    1.0000 </r>
       <r>  -23.3470    1.0000 </r>
       <r>  -23.3459    1.0000 </r>
       <r>  -21.8645    1.0000 </r>
       <r>  -21.5868    1.0000 </r>
       <r>  -21.5237    1.0000 </r>
       <r>  -21.5225    1.0000 </r>
       <r>  -21.2584    1.0000 </r>
       <r>  -21.2558    1.0000 </r>
       <r>  -21.1681    1.0000 </r>
       <r>  -20.8803    1.0000 </r>
       <r>  -20.3976    1.0000 </r>
       <r>  -20.3954    1.0000 </r>
       <r>  -20.0903    1.0000 </r>
       <r>  -19.7893    1.0000 </r>
       <r>  -19.7871    1.0000 </r>
       <r>  -19.5476    1.0000 </r>
       <r>  -19.2362    1.0000 </r>
       <r>  -19.2361    1.0000 </r>
       <r>  -19.0429    1.0000 </r>
       <r>  -19.0420    1.0000 </r>
       <r>  -18.5209    1.0000 </r>
       <r>  -18.5083    1.0000 </r>
       <r>  -18.5079    1.0000 </r>
       <r>  -18.4771    1.0000 </r>
       <r>  -18.2271    1.0000 </r>
       <r>  -18.2265    1.0000 </r>
       <r>  -18.1906    1.0000 </r>
       <r>  -18.0019    1.0000 </r>
       <r>  -17.8591    1.0000 </r>
       <r>  -17.8515    1.0000 </r>
       <r>  -17.4230    1.0000 </r>
       <r>  -17.4227    1.0000 </r>
       <r>  -16.2728    1.0000 </r>
       <r>  -16.2701    1.0000 </r>
       <r>  -16.2320    1.0000 </r>
[...]
       <r>   -21.6541     0.0000    14.0000 </r>
       <r>   -21.5592    21.0867    16.0000 </r>
       <r>   -21.4644    42.1738    20.0000 </r>
       <r>   -21.3695     0.0000    20.0000 </r>
       <r>   -21.2747    16.5697    21.5716 </r>
       <r>   -21.1799    23.2702    24.0161 </r>
       <r>   -21.0850    16.0561    25.7239 </r>
       <r>   -20.9902     0.0000    26.0000 </r>
       <r>   -20.8953    15.8313    27.5015 </r>
       <r>   -20.8005     1.7351    28.0000 </r>
       <r>   -20.7056     0.0000    28.0000 </r>
       <r>   -20.6108     0.0000    28.0000 </r>
       <r>   -20.5159     0.0000    28.0000 </r>
       <r>   -20.4211     0.0095    28.0009 </r>
       <r>   -20.3262    30.8073    30.9228 </r>
       <r>   -20.2314    12.9282    32.2609 </r>
       <r>   -20.1365     9.4592    33.3982 </r>
       <r>   -20.0417     5.2685    34.0000 </r>
       <r>   -19.9469     0.0000    34.0000 </r>
       <r>   -19.8520     0.0000    34.0000 </r>
       <r>   -19.7572    26.4931    36.5128 </r>
       <r>   -19.6623    14.3629    37.9960 </r>
       <r>   -19.5675    13.8898    39.3174 </r>
       <r>   -19.4726     3.8481    40.0000 </r>
       <r>   -19.3778     0.0000    40.0000 </r>
       <r>   -19.2829     0.0000    40.0000 </r>
       <r>   -19.1881    42.1738    44.0000 </r>
       <r>   -19.0932     1.2226    44.1160 </r>
       <r>   -18.9984    31.2665    48.0000 </r>
       <r>   -18.9036     0.0000    48.0000 </r>
       <r>   -18.8087     0.0000    48.0000 </r>
       <r>   -18.7139     0.0000    48.0000 </r>
       <r>   -18.6190     0.0000    48.0000 </r>
       <r>   -18.5242     3.2076    48.3042 </r>
       <r>   -18.4293    51.9686    54.9561 </r>
       <r>   -18.3345     8.4075    56.0000 </r>
       <r>   -18.2396     1.1645    56.1104 </r>
       <r>   -18.1448    43.5501    63.1384 </r>
       <r>   -18.0499     3.9904    63.5788 </r>
       <r>   -17.9551     3.8618    64.0000 </r>
       <r>   -17.8603     9.6277    64.9131 </r>
       <r>   -17.7654     4.6655    66.6428 </r>
       <r>   -17.6706    13.3350    67.9982 </r>
       <r>   -17.5757     0.0000    68.0000 </r>
       <r>   -17.4809     2.3488    68.2228 </r>
       <r>   -17.3860    31.2731    72.0000 </r>
       <r>   -17.2912     0.0000    72.0000 </r>
       <r>   -17.1963     0.0000    72.0000 </r>
       <r>   -17.1015     0.0000    72.0000 </r>
       <r>   -17.0066     0.0000    72.0000 </r>
       <r>   -16.9118     0.0000    72.0000 </r>
       <r>   -16.8170     0.0000    72.0000 </r>
       <r>   -16.7221     0.0000    72.0000 </r>
       <r>   -16.6273     0.0000    72.0000 </r>
       <r>   -16.5324     0.0000    72.0000 </r>
       <r>   -16.4376     0.0000    72.0000 </r>
       <r>   -16.3427     0.0000    72.0000 </r>
       <r>   -16.2479    42.2751    76.0096 </r>
       <r>   -16.1530    20.9725    78.0000 </r>
       <r>   -16.0582     0.0000    78.0000 </r>
       <r>   -15.9633    60.1699    83.7069 </r>
       <r>   -15.8685     0.0000    84.0000 </r>
       <r>   -15.7737     0.0000    84.0000 </r>
       <r>   -15.6788     0.0000    84.0000 </r>
       <r>   -15.5840     0.0000    84.0000 </r>
       <r>   -15.4891    34.0015    87.2249 </r>
       <r>   -15.3943     0.0000    88.0000 </r>
       <r>   -15.2994     0.0000    88.0000 </r>
       <r>   -15.2046    14.8215    89.4058 </r>
       <r>   -15.1097    26.3488    92.0000 </r>
       <r>   -15.0149    21.0738    93.9988 </r>
       <r>   -14.9200     0.0000    94.0000 </r>
       <r>   -14.8252     5.6710    94.5379 </r>
       <r>   -14.7303    36.4604    98.1252 </r>
       <r>   -14.6355    36.1680   102.0000 </r>
       <r>   -14.5407     0.0000   102.0000 </r>
       <r>   -14.4458    20.9780   103.9897 </r>
       <r>   -14.3510    42.1335   108.0000 </r>
       <r>   -14.2561     0.0000   108.0000 </r>
       <r>   -14.1613     0.0000   108.0000 </r>
       <r>   -14.0664     0.0000   108.0000 </r>
       <r>   -13.9716     0.0000   108.0000 </r>
       <r>   -13.8767    42.1738   112.0000 </r>
       <r>   -13.7819     0.0000   112.0000 </r>
       <r>   -13.6870     4.7709   112.4525 </r>
       <r>   -13.5922    54.6192   121.1804 </r>
       <r>   -13.4974     0.0000   122.0000 </r>
       <r>   -13.4025     1.8702   122.1774 </r>
       <r>   -13.3077     0.0000   124.0000 </r>
       <r>   -13.2128    19.7660   125.8747 </r>
       <r>   -13.1180     1.7251   126.1636 </r>
       <r>   -13.0231    17.9130   130.0000 </r>
       <r>   -12.9283     0.0000   130.0000 </r>
       <r>   -12.8334    13.3581   131.2670 </r>
       <r>   -12.7386     6.6677   131.9998 </r>
       <r>   -12.6437     7.9313   132.7522 </r>
       <r>   -12.5489     7.2452   134.9212 </r>
       <r>   -12.4541     6.6458   136.0000 </r>
       <r>   -12.3592     0.0000   136.0000 </r>
       <r>   -12.2644     0.0000   136.0000 </r>
       <r>   -12.1695     0.0000   136.0000 </r>
       <r>   -12.0747     8.2442   136.7819 </r>
       <r>   -11.9798    21.7663   139.5665 </r>
       <r>   -11.8850    63.1904   145.9933 </r>
       <r>   -11.7901     0.0000   146.0000 </r>
       <r>   -11.6953    21.0869   148.0000 </r>
       <r>   -11.6004    41.7571   151.9605 </r>
       <r>   -11.5056     0.0000   152.0000 </r>
       <r>   -11.4108     0.0014   152.0001 </r>
       <r>   -11.3159    69.5193   158.5937 </r>
       <r>   -11.2211     0.0000   160.0000 </r>
       <r>   -11.1262     0.0000   160.0000 </r>
       <r>   -11.0314    24.0574   162.2817 </r>
       <r>   -10.9365    26.9060   165.9557 </r>
       <r>   -10.8417    29.4926   170.0000 </r>
       <r>   -10.7468    36.6379   173.4749 </r>
       <r>   -10.6520     7.2805   174.6905 </r>
       <r>   -10.5571    22.7584   178.0000 </r>
       <r>   -10.4623    11.6357   179.1036 </r>
       <r>   -10.3675    17.3798   181.0158 </r>
       <r>   -10.2726    45.1174   185.9151 </r>
       <r>   -10.1778    35.9182   189.4067 </r>
       <r>   -10.0829    25.7209   193.3419 </r>
       <r>    -9.9881    32.1317   196.9485 </r>
       <r>    -9.8932    50.0278   202.1517 </r>
       <r>    -9.7984    60.6211   208.5851 </r>
       <r>    -9.7035     3.2035   210.1069 </r>
       <r>    -9.6087    50.5019   216.0000 </r>
       <r>    -9.5138    21.0869   218.0000 </r>
       <r>    -9.4190     0.0000   218.0000 </r>
       <r>    -9.3241     0.0000   218.0000 </r>
       <r>    -9.2293    42.1738   222.0000 </r>
       <r>    -9.1345     0.0000   222.0000 </r>
       <r>    -9.0396     0.0000   222.0000 </r>
       <r>    -8.9448    42.2445   226.0067 </r>
       <r>    -8.8499    50.8490   230.8296 </r>
       <r>    -8.7551     0.0000   232.0000 </r>
       <r>    -8.6602    50.4084   236.7810 </r>
       <r>    -8.5654    70.3286   245.8711 </r>
       <r>    -8.4705     3.4471   246.3269 </r>
       <r>    -8.3757    23.1298   250.0000 </r>
       <r>    -8.2808    21.0867   252.0000 </r>
       <r>    -8.1860    39.0926   255.7078 </r>
       <r>    -8.0912    21.0610   258.0000 </r>
       <r>    -7.9963     0.0000   258.0000 </r>
       <r>    -7.9015    16.0989   259.5269 </r>
       <r>    -7.8066    37.3601   263.5434 </r>
       <r>    -7.7118     0.0000   264.0000 </r>
       <r>    -7.6169     0.0000   264.0000 </r>
       <r>    -7.5221    42.1719   267.9998 </r>
       <r>    -7.4272     0.0000   268.0000 </r>
       <r>    -7.3324    42.1738   272.0000 </r>
       <r>    -7.2375     0.0000   272.0000 </r>
       <r>    -7.1427     0.0000   272.0000 </r>
       <r>    -7.0479    42.1336   275.9962 </r>
       <r>    -6.9530     0.0000   276.0000 </r>
       <r>    -6.8582     0.0000   276.0000 </r>
       <r>    -6.7633     0.2843   276.0270 </r>
       <r>    -6.6685    61.9207   282.3086 </r>
       <r>    -6.5736     0.0000   288.0000 </r>
       <r>    -6.4788     0.0000   288.0000 </r>
       <r>    -6.3839    49.3926   292.6847 </r>
       <r>    -6.2891     0.0000   294.0000 </r>
       <r>    -6.1942     0.0000   294.0000 </r>
       <r>    -6.0994    38.8864   297.6882 </r>
       <r>    -6.0046     0.0000   302.0000 </r>
       <r>    -5.9097     0.0000   302.0000 </r>
       <r>    -5.8149    17.8006   303.6883 </r>
       <r>    -5.7200     0.0000   304.0000 </r>
       <r>    -5.6252     0.0000   304.0000 </r>
       <r>    -5.5303    19.9358   305.8908 </r>
       <r>    -5.4355    42.1738   314.0000 </r>
       <r>    -5.3406     0.0000   314.0000 </r>
       <r>    -5.2458     0.0000   314.0000 </r>
       <r>    -5.1509    42.1650   317.9992 </r>
       <r>    -5.0561     0.0000   318.0000 </r>
       <r>    -4.9612     0.0000   318.0000 </r>
       <r>    -4.8664     0.0000   318.0000 </r>
       <r>    -4.7716     0.0000   318.0000 </r>
       <r>    -4.6767    63.0233   323.9775 </r>
       <r>    -4.5819     0.0000   324.0000 </r>
       <r>    -4.4870     0.0000   324.0000 </r>
       <r>    -4.3922     0.0000   324.0000 </r>
       <r>    -4.2973     0.0000   324.0000 </r>
       <r>    -4.2025     0.0000   324.0000 </r>
       <r>    -4.1076     0.0000   324.0000 </r>
       <r>    -4.0128     0.0000   324.0000 </r>
       <r>    -3.9179     0.0000   324.0000 </r>
       <r>    -3.8231     0.0000   324.0000 </r>
       <r>    -3.7283     0.0000   324.0000 </r>
       <r>    -3.6334     0.0000   324.0000 </r>
       <r>    -3.5386     0.0000   324.0000 </r>
       <r>    -3.4437     0.0000   324.0000 </r>
       <r>    -3.3489     0.0000   324.0000 </r>
       <r>    -3.2540     0.0000   324.0000 </r>
       <r>    -3.1592     0.0000   324.0000 </r>
       <r>    -3.0643     0.0000   324.0000 </r>
       <r>    -2.9695     0.0000   324.0000 </r>
       <r>    -2.8746     0.0000   324.0000 </r>
       <r>    -2.7798     0.0000   324.0000 </r>
       <r>    -2.6850     0.0000   324.0000 </r>
       <r>    -2.5901     0.0000   324.0000 </r>
       <r>    -2.4953     0.0000   324.0000 </r>
       <r>    -2.4004     0.0000   324.0000 </r>
       <r>    -2.3056     0.0000   324.0000 </r>
       <r>    -2.2107    42.1738   328.0000 </r>
       <r>    -2.1159     0.0000   328.0000 </r>
       <r>    -2.0210     0.0000   328.0000 </r>
       <r>    -1.9262    42.1557   331.9983 </r>
       <r>    -1.8313     0.0000   332.0000 </r>
       <r>    -1.7365    61.8671   337.8678 </r>
       <r>    -1.6417     0.0000   338.0000 </r>
       <r>    -1.5468    13.8760   339.3161 </r>
       <r>    -1.4520     0.0000   340.0000 </r>
       <r>    -1.3571     0.0000   340.0000 </r>
       <r>    -1.2623     0.0007   340.0001 </r>
       <r>    -1.1674    84.3668   348.0019 </r>
       <r>    -1.0726    63.2216   354.0000 </r>
       <r>    -0.9777     0.0000   354.0000 </r>
       <r>    -0.8829     0.0000   354.0000 </r>
       <r>    -0.7880    63.2607   360.0000 </r>
       <r>    -0.6932     0.2142   360.0203 </r>
       <r>    -0.5984    20.1284   362.2560 </r>
       <r>    -0.5035    22.4528   366.0000 </r>
       <r>    -0.4087     0.0000   366.0000 </r>
       <r>    -0.3138     6.2341   366.5913 </r>
       <r>    -0.2190    19.9436   369.3301 </r>
       <r>    -0.1241    42.1552   373.9982 </r>
       <r>    -0.0293    14.7592   375.3998 </r>
       <r>     0.0656    42.1061   382.0000 </r>
       <r>     0.1604    18.9286   383.7953 </r>
       <r>     0.2553    42.2987   388.0122 </r>
       <r>     0.3501    53.2459   393.5871 </r>
       <r>     0.4450    52.2372   400.2921 </r>
       <r>     0.5398    48.3857   406.5912 </r>
       <r>     0.6346    45.9897   411.2621 </r>
       <r>     0.7295    71.8160   419.2164 </r>
       <r>     0.8243    85.2934   427.6597 </r>
       <r>     0.9192    99.4167   438.7708 </r>
       <r>     1.0140    75.6795   446.8146 </r>
       <r>     1.1089     5.6201   448.0000 </r>
       <r>     1.2037     0.0000   448.0000 </r>
       <r>     1.2986     0.0000   448.0000 </r>
       <r>     1.3934     0.0000   448.0000 </r>
       <r>     1.4883     0.0000   448.0000 </r>
       <r>     1.5831     0.0000   448.0000 </r>
       <r>     1.6779     0.0000   448.0000 </r>
       <r>     1.7728     0.0000   448.0000 </r>
       <r>     1.8676     0.0000   448.0000 </r>
       <r>     1.9625     0.0000   448.0000 </r>
       <r>     2.0573     0.0000   448.0000 </r>
       <r>     2.1522     0.0000   448.0000 </r>
       <r>     2.2470     0.0000   448.0000 </r>
       <r>     2.3419     0.0000   448.0000 </r>
      </set>
     </set>
    </array>
   </total>
  </dos>
 </calculation>
 <structure name="finalpos" >
  <crystal>
   <varray name="basis" >
    <v>      29.74938267       0.00482521       0.00000000 </v>
    <v>     -14.87051339      25.76113520       0.00000000 </v>
    <v>       0.00000000       0.00000000      20.00000000 </v>
   </varray>
   <i name="volume">  15328.99244890 </i>
   <varray name="rec_basis" >
    <v>       0.03361100       0.01940181       0.00000000 </v>
    <v>      -0.00000630       0.03881453       0.00000000 </v>
    <v>       0.00000000       0.00000000       0.05000000 </v>
   </varray>
  </crystal>
  <varray name="positions" >
   <v>       0.53469317       0.06029751       0.63273913 </v>
   <v>       0.51551512       0.03122447       0.45348942 </v>
   <v>       0.52765512       0.47498352       0.63344202 </v>
   <v>       0.94914932       0.48215499       0.63286971 </v>
   <v>       0.51692312       0.49288179       0.45405575 </v>
   <v>       0.49109865       0.51892114       0.45267085 </v>
   <v>       0.97799072       0.49101991       0.45355909 </v>
   <v>       0.02985144       0.51682806       0.45232489 </v>
   <v>       0.48941632       0.97935087       0.45236798 </v>
   <v>       0.51999707       0.04228661       0.67689197 </v>
   <v>       0.54845443       0.09904765       0.63099041 </v>
   <v>       0.48993484       0.12214632       0.50689888 </v>
   <v>       0.53681945       0.21685896       0.50434839 </v>
   <v>       0.63457431       0.12226274       0.50657654 </v>
   <v>       0.68221546       0.21694726       0.50337210 </v>
   <v>       0.79245360       0.32733000       0.50241067 </v>
   <v>       0.88716357       0.37509958       0.50526323 </v>
   <v>       0.79234581       0.47263133       0.50517064 </v>
   <v>       0.88701009       0.51960311       0.50835413 </v>
   <v>       0.68177980       0.47248254       0.50378946 </v>
   <v>       0.63375826       0.51921586       0.50696568 </v>
   <v>       0.48948106       0.37437064       0.50787107 </v>
   <v>       0.53669947       0.32689453       0.50424094 </v>
   <v>       0.57445535       0.29080855       0.50339290 </v>
   <v>       0.71851114       0.29098636       0.50416217 </v>
   <v>       0.71831922       0.43489920       0.50331080 </v>
   <v>       0.51745551       0.88881178       0.50707993 </v>
   <v>       0.47053430       0.79414079       0.50333597 </v>
   <v>       0.37293144       0.88886322       0.50497153 </v>
   <v>       0.32522908       0.79416114       0.50151433 </v>
   <v>       0.21498946       0.68377506       0.50303908 </v>
   <v>       0.12030425       0.63594258       0.50687048 </v>
   <v>       0.21515010       0.53851355       0.50141457 </v>
   <v>       0.12046237       0.49145051       0.50488051 </v>
   <v>       0.32531436       0.53856775       0.50232063 </v>
   <v>       0.37298462       0.49156496       0.50612772 </v>
   <v>       0.51757461       0.63604692       0.50601837 </v>
   <v>       0.47065559       0.68383370       0.50246912 </v>
   <v>       0.43296396       0.72022395       0.50170081 </v>
   <v>       0.28893768       0.72014433       0.50176251 </v>
   <v>       0.28906106       0.57621416       0.50198687 </v>
   <v>       0.52430234       0.48973894       0.67752292 </v>
   <v>       0.55244975       0.46098177       0.63183081 </v>
   <v>       0.47694263       0.52922883       0.61943801 </v>
   <v>       0.96724807       0.48566665       0.67700317 </v>
   <v>       0.91039602       0.45719672       0.63128048 </v>
   <v>       0.05404202       0.53319002       0.61905873 </v>
   <v>       0.48047069       0.95535323       0.61920057 </v>
   <v>       0.51848416       0.03239162       0.57463839 </v>
   <v>       0.52989976       0.05741674       0.51122852 </v>
   <v>       0.55873813       0.11515275       0.50752610 </v>
   <v>       0.64293094       0.28379040       0.50360799 </v>
   <v>       0.61660459       0.31193326       0.50343165 </v>
   <v>       0.64281808       0.36639504       0.50350205 </v>
   <v>       0.69728325       0.39273990       0.50339049 </v>
   <v>       0.72551553       0.36649536       0.50356717 </v>
   <v>       0.69738872       0.31202209       0.50372729 </v>
   <v>       0.61376536       0.39521709       0.50443306 </v>
   <v>       0.55910143       0.36913538       0.50528795 </v>
   <v>       0.53182963       0.39590489       0.50739404 </v>
   <v>       0.55809290       0.45028015       0.50826725 </v>
   <v>       0.61246862       0.47685113       0.50697871 </v>
   <v>       0.63955330       0.44986597       0.50501550 </v>
   <v>       0.61402544       0.22591658       0.50435407 </v>
   <v>       0.55937544       0.19716996       0.50512766 </v>
   <v>       0.53229324       0.14310220       0.50674163 </v>
   <v>       0.61311117       0.14315904       0.50645927 </v>
   <v>       0.63998383       0.19720517       0.50465152 </v>
   <v>       0.78338633       0.39546185       0.50430518 </v>
   <v>       0.81213919       0.36955266       0.50409913 </v>
   <v>       0.86619651       0.39649420       0.50582037 </v>
   <v>       0.89413036       0.45086026       0.50764541 </v>
   <v>       0.86612556       0.47725116       0.50750444 </v>
   <v>       0.81208391       0.45012058       0.50562966 </v>
   <v>       0.36449602       0.72729168       0.50169334 </v>
   <v>       0.39081030       0.69912901       0.50161408 </v>
   <v>       0.36456963       0.64466527       0.50172112 </v>
   <v>       0.31011394       0.61836733       0.50169086 </v>
   <v>       0.28190094       0.64461788       0.50167455 </v>
   <v>       0.31003999       0.69908444       0.50160907 </v>
   <v>       0.39349252       0.61571639       0.50270835 </v>
   <v>       0.44813288       0.64159451       0.50347858 </v>
   <v>       0.47522477       0.61462981       0.50563517 </v>
   <v>       0.44873627       0.56031776       0.50719224 </v>
   <v>       0.39443513       0.53391735       0.50571285 </v>
   <v>       0.36754613       0.56106862       0.50344876 </v>
   <v>       0.39338359       0.78515151       0.50270223 </v>
   <v>       0.44801509       0.81386601       0.50400283 </v>
   <v>       0.47510941       0.86790268       0.50627142 </v>
   <v>       0.44865161       0.89576696       0.50715146 </v>
   <v>       0.39436176       0.86793502       0.50504246 </v>
   <v>       0.36745818       0.81388546       0.50293912 </v>
   <v>       0.22404999       0.61563700       0.50259036 </v>
   <v>       0.19530020       0.64153170       0.50380099 </v>
   <v>       0.14126971       0.61455157       0.50608390 </v>
   <v>       0.11346957       0.56023493       0.50699095 </v>
   <v>       0.14134098       0.53380493       0.50489943 </v>
   <v>       0.19537803       0.56098103       0.50282107 </v>
   <v>       0.47742326       0.53129426       0.51131670 </v>
   <v>       0.48884952       0.51821118       0.57350667 </v>
   <v>       0.51572864       0.49082620       0.57522290 </v>
   <v>       0.52909461       0.47901506       0.51191179 </v>
   <v>       0.05578104       0.53142847       0.51100095 </v>
   <v>       0.03119113       0.52072847       0.57309021 </v>
   <v>       0.97694504       0.49371080       0.57468566 </v>
   <v>       0.95186084       0.47971251       0.51132600 </v>
   <v>       0.47758495       0.95346865       0.51110475 </v>
   <v>       0.49112721       0.97813606       0.57316549 </v>
  </varray>
 </structure>
</modeling>
