<?xml version="1.0" encoding="ISO-8859-1"?>
<modeling>
 <generator>
  <i name="program" type="string">vasp </i>
  <i name="version" type="string">5.4.4.18Apr17-6-g9f103f2a35  </i>
  <i name="subversion" type="string">(build Jun 07 2020 16:50:00) complex            parallel </i>
  <i name="platform" type="string">LinuxIFC </i>
  <i name="date" type="string">2023 02 22 </i>
  <i name="time" type="string">09:52:48 </i>
 </generator>
 <incar>
  <i type="string" name="SYSTEM">Simulation for cell shape cell volume r</i>
  <i type="int" name="ISTART">     1</i>
  <i type="string" name="PREC">high</i>
  <i type="string" name="ALGO">48</i>
  <i type="int" name="ICHARG">    11</i>
  <i type="int" name="NELM">   200</i>
  <i type="int" name="IBRION">    -1</i>
  <i name="EDIFF">      0.00001000</i>
  <i name="EDIFFG">     -0.01000000</i>
  <i type="int" name="NSW">     0</i>
  <i type="int" name="ISIF">     2</i>
  <i name="ENCUT">    500.00000000</i>
  <i name="POTIM">      0.30000000</i>
  <i type="string" name="LREAL">A</i>
  <i type="int" name="ISMEAR">     0</i>
  <i name="SIGMA">      0.01000000</i>
  <i type="int" name="NWRITE">     0</i>
  <i type="logical" name="LWAVE"> F  </i>
  <i type="logical" name="LCHARG"> F  </i>
  <v type="int" name="KPOINT_BSE">    -1     0     0     0</v>
  <i type="int" name="NELM">   200</i>
  <i type="string" name="GGA">PE</i>
 </incar>
 <structure name="primitive_cell" >
  <crystal>
   <varray name="basis" >
    <v>      24.51851464      -0.08625937       0.00000000 </v>
    <v>     -12.33363681      21.32713016       0.00000000 </v>
    <v>       0.00000000       0.00000000      20.00000000 </v>
   </varray>
   <i name="volume">  10436.91322564 </i>
   <varray name="rec_basis" >
    <v>       0.04086865       0.02363464       0.00000000 </v>
    <v>       0.00016530       0.04698423       0.00000000 </v>
    <v>       0.00000000       0.00000000       0.05000000 </v>
   </varray>
  </crystal>
  <varray name="positions" >
   <v>      -0.30301330       0.37560722      -0.48207491 </v>
   <v>      -0.23649692       0.40814174      -0.48009521 </v>
   <v>      -0.33811091       0.30911974      -0.47955014 </v>
   <v>      -0.33571741       0.40945513      -0.48302388 </v>
   <v>      -0.39204326       0.27566430       0.48029731 </v>
   <v>      -0.20275693       0.46617225      -0.44667067 </v>
   <v>      -0.38795246       0.39166245      -0.44096212 </v>
   <v>      -0.20227871       0.38355807       0.48830621 </v>
   <v>      -0.31606614       0.46156400       0.47464731 </v>
   <v>      -0.32044373       0.27559697      -0.43634052 </v>
   <v>      -0.40637661       0.30135458       0.44711250 </v>
   <v>      -0.40351017       0.35117624      -0.40810501 </v>
   <v>      -0.22850660       0.48559471      -0.42135060 </v>
   <v>      -0.27546095       0.47575586       0.44201283 </v>
   <v>      -0.22758518       0.33891364       0.46179978 </v>
   <v>      -0.27887792       0.30121529      -0.40471047 </v>
   <v>      -0.13727440       0.49847363      -0.44559379 </v>
   <v>      -0.42713204       0.21044275       0.48321634 </v>
   <v>      -0.13670771       0.41609593       0.49007498 </v>
   <v>      -0.41905539       0.42570284      -0.44074347 </v>
   <v>      -0.35587024       0.21043241      -0.43359607 </v>
   <v>      -0.34755654       0.49532404       0.47503931 </v>
   <v>      -0.40973985       0.17643400      -0.47388204 </v>
   <v>      -0.39954994       0.47823465      -0.48257394 </v>
   <v>      -0.10250421       0.47441480      -0.47709463 </v>
   <v>      -0.11202927       0.39595949       0.46391763 </v>
   <v>      -0.46919672       0.18579204       0.45208735 </v>
   <v>      -0.33065420      -0.46379254       0.44248715 </v>
   <v>      -0.11150539      -0.45674250      -0.41947328 </v>
   <v>      -0.45885568       0.41253173      -0.40722905 </v>
   <v>      -0.34257777       0.18457862      -0.39941179 </v>
   <v>      -0.44616590       0.10722253      -0.47035342 </v>
   <v>      -0.43301949      -0.48603401      -0.48039834 </v>
   <v>      -0.03294336      -0.48971559      -0.47529250 </v>
   <v>      -0.48793012       0.09020370       0.42985494 </v>
   <v>      -0.46378257      -0.48899302      -0.42349358 </v>
   <v>      -0.00508474      -0.43042762      -0.45189748 </v>
   <v>      -0.40931500      -0.44648438       0.41888423 </v>
   <v>      -0.44244366       0.07997929      -0.41348093 </v>
   <v>      -0.01539197       0.43827551       0.48305850 </v>
   <v>      -0.48328238       0.06958291       0.47628465 </v>
   <v>      -0.43400483      -0.45005312       0.46556778 </v>
   <v>       0.00501960       0.48591552      -0.49731277 </v>
   <v>      -0.49572205      -0.45827772      -0.42039043 </v>
   <v>       0.05789859      -0.39653931      -0.44885399 </v>
   <v>      -0.47321288       0.01724462      -0.40999660 </v>
   <v>       0.48718872       0.00693793       0.47869715 </v>
   <v>      -0.46658339      -0.41997456       0.46783443 </v>
   <v>       0.06784566      -0.48058784      -0.49482723 </v>
   <v>       0.05070514      -0.32135821      -0.42313539 </v>
   <v>       0.49113250      -0.47697452      -0.32150588 </v>
   <v>      -0.45437529       0.02331485      -0.31105572 </v>
   <v>       0.49256321      -0.02096599      -0.46610792 </v>
   <v>      -0.49919137      -0.42411719      -0.47669434 </v>
   <v>       0.09627604      -0.42202581      -0.46989574 </v>
   <v>       0.47554394      -0.46166912      -0.36012379 </v>
   <v>       0.08241828      -0.33636858      -0.42426194 </v>
   <v>      -0.46971422      -0.00772252      -0.34959205 </v>
   <v>       0.12684660      -0.30379417      -0.43824875 </v>
   <v>       0.46509466      -0.42773415      -0.34935286 </v>
   <v>       0.49616665      -0.05226392      -0.33869248 </v>
   <v>       0.46085438      -0.09022804      -0.46649888 </v>
   <v>       0.46500448      -0.39065720      -0.47625250 </v>
   <v>       0.16600761      -0.38722391      -0.46926604 </v>
   <v>       0.17085532      -0.43635105       0.44392652 </v>
   <v>      -0.46654630      -0.31495991       0.46253937 </v>
   <v>       0.38442868      -0.09996757       0.47178468 </v>
   <v>      -0.46850775      -0.09818286      -0.40889224 </v>
   <v>       0.38454667      -0.46045182      -0.41982502 </v>
   <v>       0.17909960      -0.33285047      -0.37907719 </v>
   <v>       0.19847700      -0.40070261       0.48124444 </v>
   <v>       0.48902057      -0.33306738       0.48958074 </v>
   <v>       0.40391112      -0.12519924       0.49799831 </v>
   <v>       0.48638771      -0.12362623      -0.43499063 </v>
   <v>       0.40615187      -0.41465776      -0.44424446 </v>
   <v>       0.20228704      -0.34180764      -0.42063381 </v>
   <v>       0.26400407      -0.36919684       0.47921747 </v>
   <v>       0.37341497      -0.19028072       0.49494544 </v>
   <v>       0.45696601      -0.29998374       0.48916691 </v>
   <v>       0.45613456      -0.18888739      -0.43782755 </v>
   <v>       0.37372033      -0.38180724      -0.44430404 </v>
   <v>       0.26800990      -0.31021674      -0.42236858 </v>
   <v>       0.28845605      -0.37953668       0.44009733 </v>
   <v>       0.47664612      -0.25544254       0.46247489 </v>
   <v>       0.39890559      -0.22334385      -0.47273883 </v>
   <v>       0.32935027      -0.21637126       0.46718755 </v>
   <v>       0.47708901      -0.21346616      -0.41312602 </v>
   <v>       0.39909184      -0.32339700      -0.47677335 </v>
   <v>       0.29954249      -0.32303077      -0.47287644 </v>
   <v>       0.32822182      -0.40148712      -0.41913381 </v>
   <v>       0.29548250      -0.27555862      -0.38407677 </v>
   <v>       0.36668962      -0.28962426      -0.47538906 </v>
  </varray>
 </structure>
 <varray name="primitive_index" >
  <v type="int" >        1 </v>
  <v type="int" >       13 </v>
  <v type="int" >       14 </v>
  <v type="int" >       12 </v>
  <v type="int" >       19 </v>
  <v type="int" >       25 </v>
  <v type="int" >       24 </v>
  <v type="int" >       29 </v>
  <v type="int" >       20 </v>
  <v type="int" >       15 </v>
  <v type="int" >       70 </v>
  <v type="int" >       62 </v>
  <v type="int" >       66 </v>
  <v type="int" >       61 </v>
  <v type="int" >       69 </v>
  <v type="int" >       64 </v>
  <v type="int" >       26 </v>
  <v type="int" >       18 </v>
  <v type="int" >       28 </v>
  <v type="int" >       23 </v>
  <v type="int" >       16 </v>
  <v type="int" >       21 </v>
  <v type="int" >       17 </v>
  <v type="int" >       22 </v>
  <v type="int" >       27 </v>
  <v type="int" >       68 </v>
  <v type="int" >       71 </v>
  <v type="int" >       60 </v>
  <v type="int" >       67 </v>
  <v type="int" >       63 </v>
  <v type="int" >       65 </v>
  <v type="int" >       55 </v>
  <v type="int" >       49 </v>
  <v type="int" >       52 </v>
  <v type="int" >       92 </v>
  <v type="int" >        3 </v>
  <v type="int" >        5 </v>
  <v type="int" >       90 </v>
  <v type="int" >        7 </v>
  <v type="int" >       91 </v>
  <v type="int" >       59 </v>
  <v type="int" >       57 </v>
  <v type="int" >       58 </v>
  <v type="int" >       50 </v>
  <v type="int" >       53 </v>
  <v type="int" >       56 </v>
  <v type="int" >       11 </v>
  <v type="int" >        9 </v>
  <v type="int" >       10 </v>
  <v type="int" >       87 </v>
  <v type="int" >       85 </v>
  <v type="int" >       89 </v>
  <v type="int" >       54 </v>
  <v type="int" >       48 </v>
  <v type="int" >       51 </v>
  <v type="int" >        4 </v>
  <v type="int" >        6 </v>
  <v type="int" >        8 </v>
  <v type="int" >       86 </v>
  <v type="int" >       84 </v>
  <v type="int" >       88 </v>
  <v type="int" >       35 </v>
  <v type="int" >       40 </v>
  <v type="int" >       45 </v>
  <v type="int" >       80 </v>
  <v type="int" >       75 </v>
  <v type="int" >       83 </v>
  <v type="int" >       77 </v>
  <v type="int" >       72 </v>
  <v type="int" >       79 </v>
  <v type="int" >       46 </v>
  <v type="int" >       41 </v>
  <v type="int" >       36 </v>
  <v type="int" >       34 </v>
  <v type="int" >       39 </v>
  <v type="int" >       44 </v>
  <v type="int" >       47 </v>
  <v type="int" >       37 </v>
  <v type="int" >       42 </v>
  <v type="int" >       33 </v>
  <v type="int" >       38 </v>
  <v type="int" >       43 </v>
  <v type="int" >       81 </v>
  <v type="int" >       74 </v>
  <v type="int" >       32 </v>
  <v type="int" >       82 </v>
  <v type="int" >       76 </v>
  <v type="int" >       30 </v>
  <v type="int" >       31 </v>
  <v type="int" >       73 </v>
  <v type="int" >       78 </v>
  <v type="int" >        2 </v>
 </varray>
 <kpoints>
  <generation param="listgenerated">
   <i name="divisions" type="int">      20 </i>
   <v>       0.00000000       0.00000000       0.00000000 </v>
   <v>       0.50000000      -0.50000000       0.00000000 </v>
   <v>       0.66586275      -0.33089730       0.00000000 </v>
   <v>       0.50000000       0.00000000       0.00000000 </v>
   <v>       0.33413725       0.33089730       0.00000000 </v>
   <v>       0.00000000       0.50000000       0.00000000 </v>
   <v>       0.00000000       0.00000000       0.00000000 </v>
  </generation>
  <varray name="kpointlist" >
   <v>       0.00000000       0.00000000       0.00000000 </v>
   <v>       0.02631579      -0.02631579       0.00000000 </v>
   <v>       0.05263158      -0.05263158       0.00000000 </v>
   <v>       0.07894737      -0.07894737       0.00000000 </v>
   <v>       0.10526316      -0.10526316       0.00000000 </v>
   <v>       0.13157895      -0.13157895       0.00000000 </v>
   <v>       0.15789474      -0.15789474       0.00000000 </v>
   <v>       0.18421053      -0.18421053       0.00000000 </v>
   <v>       0.21052632      -0.21052632       0.00000000 </v>
   <v>       0.23684211      -0.23684211       0.00000000 </v>
   <v>       0.26315789      -0.26315789       0.00000000 </v>
   <v>       0.28947368      -0.28947368       0.00000000 </v>
   <v>       0.31578947      -0.31578947       0.00000000 </v>
   <v>       0.34210526      -0.34210526       0.00000000 </v>
   <v>       0.36842105      -0.36842105       0.00000000 </v>
   <v>       0.39473684      -0.39473684       0.00000000 </v>
   <v>       0.42105263      -0.42105263       0.00000000 </v>
   <v>       0.44736842      -0.44736842       0.00000000 </v>
   <v>       0.47368421      -0.47368421       0.00000000 </v>
   <v>       0.50000000      -0.50000000       0.00000000 </v>
   <v>       0.50000000      -0.50000000       0.00000000 </v>
   <v>       0.50872962      -0.49109986       0.00000000 </v>
   <v>       0.51745924      -0.48219972       0.00000000 </v>
   <v>       0.52618885      -0.47329957       0.00000000 </v>
   <v>       0.53491847      -0.46439943       0.00000000 </v>
   <v>       0.54364809      -0.45549929       0.00000000 </v>
   <v>       0.55237771      -0.44659915       0.00000000 </v>
   <v>       0.56110733      -0.43769900       0.00000000 </v>
   <v>       0.56983695      -0.42879886       0.00000000 </v>
   <v>       0.57856656      -0.41989872       0.00000000 </v>
   <v>       0.58729618      -0.41099858       0.00000000 </v>
   <v>       0.59602580      -0.40209844       0.00000000 </v>
   <v>       0.60475542      -0.39319829       0.00000000 </v>
   <v>       0.61348504      -0.38429815       0.00000000 </v>
   <v>       0.62221466      -0.37539801       0.00000000 </v>
   <v>       0.63094427      -0.36649787       0.00000000 </v>
   <v>       0.63967389      -0.35759772       0.00000000 </v>
   <v>       0.64840351      -0.34869758       0.00000000 </v>
   <v>       0.65713313      -0.33979744       0.00000000 </v>
   <v>       0.66586275      -0.33089730       0.00000000 </v>
   <v>       0.66586275      -0.33089730       0.00000000 </v>
   <v>       0.65713313      -0.31348165       0.00000000 </v>
   <v>       0.64840351      -0.29606600       0.00000000 </v>
   <v>       0.63967389      -0.27865036       0.00000000 </v>
   <v>       0.63094427      -0.26123471       0.00000000 </v>
   <v>       0.62221466      -0.24381906       0.00000000 </v>
   <v>       0.61348504      -0.22640341       0.00000000 </v>
   <v>       0.60475542      -0.20898777       0.00000000 </v>
   <v>       0.59602580      -0.19157212       0.00000000 </v>
   <v>       0.58729618      -0.17415647       0.00000000 </v>
   <v>       0.57856656      -0.15674083       0.00000000 </v>
   <v>       0.56983695      -0.13932518       0.00000000 </v>
   <v>       0.56110733      -0.12190953       0.00000000 </v>
   <v>       0.55237771      -0.10449388       0.00000000 </v>
   <v>       0.54364809      -0.08707824       0.00000000 </v>
   <v>       0.53491847      -0.06966259       0.00000000 </v>
   <v>       0.52618885      -0.05224694       0.00000000 </v>
   <v>       0.51745924      -0.03483129       0.00000000 </v>
   <v>       0.50872962      -0.01741565       0.00000000 </v>
   <v>       0.50000000       0.00000000       0.00000000 </v>
   <v>       0.50000000       0.00000000       0.00000000 </v>
   <v>       0.49127038       0.01741565       0.00000000 </v>
   <v>       0.48254076       0.03483129       0.00000000 </v>
   <v>       0.47381115       0.05224694       0.00000000 </v>
   <v>       0.46508153       0.06966259       0.00000000 </v>
   <v>       0.45635191       0.08707824       0.00000000 </v>
   <v>       0.44762229       0.10449388       0.00000000 </v>
   <v>       0.43889267       0.12190953       0.00000000 </v>
   <v>       0.43016305       0.13932518       0.00000000 </v>
   <v>       0.42143344       0.15674083       0.00000000 </v>
   <v>       0.41270382       0.17415647       0.00000000 </v>
   <v>       0.40397420       0.19157212       0.00000000 </v>
   <v>       0.39524458       0.20898777       0.00000000 </v>
   <v>       0.38651496       0.22640341       0.00000000 </v>
   <v>       0.37778534       0.24381906       0.00000000 </v>
   <v>       0.36905573       0.26123471       0.00000000 </v>
   <v>       0.36032611       0.27865036       0.00000000 </v>
   <v>       0.35159649       0.29606600       0.00000000 </v>
   <v>       0.34286687       0.31348165       0.00000000 </v>
   <v>       0.33413725       0.33089730       0.00000000 </v>
   <v>       0.33413725       0.33089730       0.00000000 </v>
   <v>       0.31655108       0.33979744       0.00000000 </v>
   <v>       0.29896491       0.34869758       0.00000000 </v>
   <v>       0.28137874       0.35759772       0.00000000 </v>
   <v>       0.26379257       0.36649787       0.00000000 </v>
   <v>       0.24620640       0.37539801       0.00000000 </v>
   <v>       0.22862023       0.38429815       0.00000000 </v>
   <v>       0.21103405       0.39319829       0.00000000 </v>
   <v>       0.19344788       0.40209844       0.00000000 </v>
   <v>       0.17586171       0.41099858       0.00000000 </v>
   <v>       0.15827554       0.41989872       0.00000000 </v>
   <v>       0.14068937       0.42879886       0.00000000 </v>
   <v>       0.12310320       0.43769900       0.00000000 </v>
   <v>       0.10551703       0.44659915       0.00000000 </v>
   <v>       0.08793086       0.45549929       0.00000000 </v>
   <v>       0.07034468       0.46439943       0.00000000 </v>
   <v>       0.05275851       0.47329957       0.00000000 </v>
   <v>       0.03517234       0.48219972       0.00000000 </v>
   <v>       0.01758617       0.49109986       0.00000000 </v>
   <v>       0.00000000       0.50000000       0.00000000 </v>
   <v>       0.00000000       0.50000000       0.00000000 </v>
   <v>       0.00000000       0.47368421       0.00000000 </v>
   <v>       0.00000000       0.44736842       0.00000000 </v>
   <v>       0.00000000       0.42105263       0.00000000 </v>
   <v>       0.00000000       0.39473684       0.00000000 </v>
   <v>       0.00000000       0.36842105       0.00000000 </v>
   <v>       0.00000000       0.34210526       0.00000000 </v>
   <v>       0.00000000       0.31578947       0.00000000 </v>
   <v>       0.00000000       0.28947368       0.00000000 </v>
   <v>       0.00000000       0.26315789       0.00000000 </v>
   <v>       0.00000000       0.23684211       0.00000000 </v>
   <v>       0.00000000       0.21052632       0.00000000 </v>
   <v>       0.00000000       0.18421053       0.00000000 </v>
   <v>       0.00000000       0.15789474       0.00000000 </v>
   <v>       0.00000000       0.13157895       0.00000000 </v>
   <v>       0.00000000       0.10526316       0.00000000 </v>
   <v>       0.00000000       0.07894737       0.00000000 </v>
   <v>       0.00000000       0.05263158       0.00000000 </v>
   <v>       0.00000000       0.02631579       0.00000000 </v>
   <v>       0.00000000       0.00000000       0.00000000 </v>
  </varray>
  <varray name="weights" >
   <v>       0.00833333 </v>
   <v>       0.00833333 </v>
   <v>       0.00833333 </v>
   <v>       0.00833333 </v>
   <v>       0.00833333 </v>
   <v>       0.00833333 </v>
   <v>       0.00833333 </v>
   <v>       0.00833333 </v>
   <v>       0.00833333 </v>
   <v>       0.00833333 </v>
   <v>       0.00833333 </v>
   <v>       0.00833333 </v>
   <v>       0.00833333 </v>
   <v>       0.00833333 </v>
   <v>       0.00833333 </v>
   <v>       0.00833333 </v>
   <v>       0.00833333 </v>
   <v>       0.00833333 </v>
   <v>       0.00833333 </v>
   <v>       0.00833333 </v>
   <v>       0.00833333 </v>
   <v>       0.00833333 </v>
   <v>       0.00833333 </v>
   <v>       0.00833333 </v>
   <v>       0.00833333 </v>
   <v>       0.00833333 </v>
   <v>       0.00833333 </v>
   <v>       0.00833333 </v>
   <v>       0.00833333 </v>
   <v>       0.00833333 </v>
   <v>       0.00833333 </v>
   <v>       0.00833333 </v>
   <v>       0.00833333 </v>
   <v>       0.00833333 </v>
   <v>       0.00833333 </v>
   <v>       0.00833333 </v>
   <v>       0.00833333 </v>
   <v>       0.00833333 </v>
   <v>       0.00833333 </v>
   <v>       0.00833333 </v>
   <v>       0.00833333 </v>
   <v>       0.00833333 </v>
   <v>       0.00833333 </v>
   <v>       0.00833333 </v>
   <v>       0.00833333 </v>
   <v>       0.00833333 </v>
   <v>       0.00833333 </v>
   <v>       0.00833333 </v>
   <v>       0.00833333 </v>
   <v>       0.00833333 </v>
   <v>       0.00833333 </v>
   <v>       0.00833333 </v>
   <v>       0.00833333 </v>
   <v>       0.00833333 </v>
   <v>       0.00833333 </v>
   <v>       0.00833333 </v>
   <v>       0.00833333 </v>
   <v>       0.00833333 </v>
   <v>       0.00833333 </v>
   <v>       0.00833333 </v>
   <v>       0.00833333 </v>
   <v>       0.00833333 </v>
   <v>       0.00833333 </v>
   <v>       0.00833333 </v>
   <v>       0.00833333 </v>
   <v>       0.00833333 </v>
   <v>       0.00833333 </v>
   <v>       0.00833333 </v>
   <v>       0.00833333 </v>
   <v>       0.00833333 </v>
   <v>       0.00833333 </v>
   <v>       0.00833333 </v>
   <v>       0.00833333 </v>
   <v>       0.00833333 </v>
   <v>       0.00833333 </v>
   <v>       0.00833333 </v>
   <v>       0.00833333 </v>
   <v>       0.00833333 </v>
   <v>       0.00833333 </v>
   <v>       0.00833333 </v>
   <v>       0.00833333 </v>
   <v>       0.00833333 </v>
   <v>       0.00833333 </v>
   <v>       0.00833333 </v>
   <v>       0.00833333 </v>
   <v>       0.00833333 </v>
   <v>       0.00833333 </v>
   <v>       0.00833333 </v>
   <v>       0.00833333 </v>
   <v>       0.00833333 </v>
   <v>       0.00833333 </v>
   <v>       0.00833333 </v>
   <v>       0.00833333 </v>
   <v>       0.00833333 </v>
   <v>       0.00833333 </v>
   <v>       0.00833333 </v>
   <v>       0.00833333 </v>
   <v>       0.00833333 </v>
   <v>       0.00833333 </v>
   <v>       0.00833333 </v>
   <v>       0.00833333 </v>
   <v>       0.00833333 </v>
   <v>       0.00833333 </v>
   <v>       0.00833333 </v>
   <v>       0.00833333 </v>
   <v>       0.00833333 </v>
   <v>       0.00833333 </v>
   <v>       0.00833333 </v>
   <v>       0.00833333 </v>
   <v>       0.00833333 </v>
   <v>       0.00833333 </v>
   <v>       0.00833333 </v>
   <v>       0.00833333 </v>
   <v>       0.00833333 </v>
   <v>       0.00833333 </v>
   <v>       0.00833333 </v>
   <v>       0.00833333 </v>
   <v>       0.00833333 </v>
   <v>       0.00833333 </v>
   <v>       0.00833333 </v>
  </varray>
 </kpoints>
 <parameters>
  <separator name="general" >
   <i type="string" name="SYSTEM">Simulation for cell shape cell volume r</i>
   <i type="logical" name="LCOMPAT"> F  </i>
  </separator>
  <separator name="electronic" >
   <i type="string" name="PREC">high</i>
   <i name="ENMAX">    500.00000000</i>
   <i name="ENAUG">    644.87300000</i>
   <i name="EDIFF">      0.00001000</i>
   <i type="int" name="IALGO">    38</i>
   <i type="int" name="IWAVPR">    10</i>
   <i type="int" name="NBANDS">   192</i>
   <i name="NELECT">    280.00000000</i>
   <i type="int" name="TURBO">     0</i>
   <i type="int" name="IRESTART">     0</i>
   <i type="int" name="NREBOOT">     0</i>
   <i type="int" name="NMIN">     0</i>
   <i name="EREF">      0.00000000</i>
   <separator name="electronic smearing" >
    <i type="int" name="ISMEAR">     0</i>
    <i name="SIGMA">      0.01000000</i>
    <i name="KSPACING">      0.50000000</i>
    <i type="logical" name="KGAMMA"> T  </i>
   </separator>
   <separator name="electronic projectors" >
    <i type="logical" name="LREAL"> T  </i>
    <v name="ROPT">     -0.00040000     -0.00040000     -0.00040000</v>
    <i type="int" name="LMAXPAW">  -100</i>
    <i type="int" name="LMAXMIX">     2</i>
    <i type="logical" name="NLSPLINE"> F  </i>
   </separator>
   <separator name="electronic startup" >
    <i type="int" name="ISTART">     1</i>
    <i type="int" name="ICHARG">    11</i>
    <i type="int" name="INIWAV">     1</i>
   </separator>
   <separator name="electronic spin" >
    <i type="int" name="ISPIN">     1</i>
    <i type="logical" name="LNONCOLLINEAR"> F  </i>
    <v name="MAGMOM">      1.00000000      1.00000000      1.00000000      1.00000000      1.00000000      1.00000000      1.00000000      1.00000000      1.00000000      1.00000000      1.00000000      1.00000000      1.00000000      1.00000000      1.00000000      1.00000000      1.00000000      1.00000000      1.00000000      1.00000000
      1.00000000      1.00000000      1.00000000      1.00000000      1.00000000      1.00000000      1.00000000      1.00000000      1.00000000      1.00000000      1.00000000      1.00000000      1.00000000      1.00000000      1.00000000      1.00000000      1.00000000      1.00000000      1.00000000      1.00000000
      1.00000000      1.00000000      1.00000000      1.00000000      1.00000000      1.00000000      1.00000000      1.00000000      1.00000000      1.00000000      1.00000000      1.00000000      1.00000000      1.00000000      1.00000000      1.00000000      1.00000000      1.00000000      1.00000000      1.00000000
      1.00000000      1.00000000      1.00000000      1.00000000      1.00000000      1.00000000      1.00000000      1.00000000      1.00000000      1.00000000      1.00000000      1.00000000      1.00000000      1.00000000      1.00000000      1.00000000      1.00000000      1.00000000      1.00000000      1.00000000
      1.00000000      1.00000000      1.00000000      1.00000000      1.00000000      1.00000000      1.00000000      1.00000000      1.00000000      1.00000000      1.00000000      1.00000000</v>
    <i name="NUPDOWN">     -1.00000000</i>
    <i type="logical" name="LSORBIT"> F  </i>
    <v name="SAXIS">      0.00000000      0.00000000      1.00000000</v>
    <i type="logical" name="LSPIRAL"> F  </i>
    <v name="QSPIRAL">      0.00000000      0.00000000      0.00000000</v>
    <i type="logical" name="LZEROZ"> F  </i>
   </separator>
   <separator name="electronic exchange-correlation" >
    <i type="logical" name="LASPH"> F  </i>
    <i type="logical" name="LMETAGGA"> F  </i>
   </separator>
   <separator name="electronic convergence" >
    <i type="int" name="NELM">   200</i>
    <i type="int" name="NELMDL">     0</i>
    <i type="int" name="NELMIN">     2</i>
    <i name="ENINI">    500.00000000</i>
    <separator name="electronic convergence detail" >
     <i type="logical" name="LDIAG"> T  </i>
     <i type="logical" name="LSUBROT"> F  </i>
     <i name="WEIMIN">      0.00000000</i>
     <i name="EBREAK">      0.00000001</i>
     <i name="DEPER">      0.30000000</i>
     <i type="int" name="NRMM">     4</i>
     <i name="TIME">      0.40000000</i>
    </separator>
   </separator>
   <separator name="electronic mixer" >
    <i name="AMIX">      0.40000000</i>
    <i name="BMIX">      1.00000000</i>
    <i name="AMIN">      0.10000000</i>
    <i name="AMIX_MAG">      1.60000000</i>
    <i name="BMIX_MAG">      1.00000000</i>
    <separator name="electronic mixer details" >
     <i type="int" name="IMIX">     4</i>
     <i type="logical" name="MIXFIRST"> F  </i>
     <i type="int" name="MAXMIX">   -45</i>
     <i name="WC">    100.00000000</i>
     <i type="int" name="INIMIX">     1</i>
     <i type="int" name="MIXPRE">     1</i>
     <i type="int" name="MREMOVE">     5</i>
    </separator>
   </separator>
   <separator name="electronic dipolcorrection" >
    <i type="logical" name="LDIPOL"> F  </i>
    <i type="logical" name="LMONO"> F  </i>
    <i type="int" name="IDIPOL">     0</i>
    <i name="EPSILON">      1.00000000</i>
    <v name="DIPOL">   -100.00000000   -100.00000000   -100.00000000</v>
    <i name="EFIELD">      0.00000000</i>
   </separator>
  </separator>
  <separator name="grids" >
   <i type="int" name="NGX">   180</i>
   <i type="int" name="NGY">   180</i>
   <i type="int" name="NGZ">   150</i>
   <i type="int" name="NGXF">   270</i>
   <i type="int" name="NGYF">   280</i>
   <i type="int" name="NGZF">   224</i>
   <i type="logical" name="ADDGRID"> F  </i>
  </separator>
  <separator name="ionic" >
   <i type="int" name="NSW">     0</i>
   <i type="int" name="IBRION">    -1</i>
   <i type="int" name="MDALGO">     0</i>
   <i type="int" name="ISIF">     2</i>
   <i name="PSTRESS">      0.00000000</i>
   <i name="EDIFFG">     -0.01000000</i>
   <i type="int" name="NFREE">     0</i>
   <i name="POTIM">      0.30000000</i>
   <i name="SMASS">     -3.00000000</i>
   <i name="SCALEE">      1.00000000</i>
  </separator>
  <separator name="ionic md" >
   <i name="TEBEG">      0.00010000</i>
   <i name="TEEND">      0.00010000</i>
   <i type="int" name="NBLOCK">     1</i>
   <i type="int" name="KBLOCK">     1</i>
   <i type="int" name="NPACO">   256</i>
   <i name="APACO">     16.00000000</i>
  </separator>
  <separator name="symmetry" >
   <i type="int" name="ISYM">     2</i>
   <i name="SYMPREC">      0.00001000</i>
  </separator>
  <separator name="dos" >
   <i type="int" name="LORBIT">     0</i>
   <v name="RWIGS">     -1.00000000     -1.00000000     -1.00000000</v>
   <i type="int" name="NEDOS">   301</i>
   <i name="EMIN">     10.00000000</i>
   <i name="EMAX">    -10.00000000</i>
   <i name="EFERMI">      0.00000000</i>
  </separator>
  <separator name="writing" >
   <i type="int" name="NWRITE">     0</i>
   <i type="logical" name="LWAVE"> F  </i>
   <i type="logical" name="LDOWNSAMPLE"> F  </i>
   <i type="logical" name="LCHARG"> F  </i>
   <i type="logical" name="LPARD"> F  </i>
   <i type="logical" name="LVTOT"> F  </i>
   <i type="logical" name="LVHAR"> F  </i>
   <i type="logical" name="LELF"> F  </i>
   <i type="logical" name="LOPTICS"> F  </i>
   <v name="STM">      0.00000000      0.00000000      0.00000000      0.00000000      0.00000000      0.00000000      0.00000000</v>
  </separator>
  <separator name="performance" >
   <i type="int" name="NPAR">    16</i>
   <i type="int" name="NSIM">     4</i>
   <i type="int" name="NBLK">    -1</i>
   <i type="logical" name="LPLANE"> T  </i>
   <i type="logical" name="LSCALAPACK"> T  </i>
   <i type="logical" name="LSCAAWARE"> F  </i>
   <i type="logical" name="LSCALU"> F  </i>
   <i type="logical" name="LASYNC"> F  </i>
   <i type="logical" name="LORBITALREAL"> F  </i>
  </separator>
  <separator name="miscellaneous" >
   <i type="int" name="IDIOT">     3</i>
   <i type="int" name="ISPECIAL">     0</i>
   <i type="logical" name="LMUSIC"> F  </i>
   <v name="POMASS">     14.00100000     12.01100000      1.00000000</v>
   <v name="DARWINR">      0.00000000      0.00000000      0.00000000</v>
   <v name="DARWINV">      1.00000000      1.00000000      1.00000000</v>
   <i type="logical" name="LCORR"> T  </i>
  </separator>
  <i type="logical" name="GGA_COMPAT"> T  </i>
  <i type="logical" name="LBERRY"> F  </i>
  <i type="int" name="ICORELEVEL">     0</i>
  <i type="logical" name="LDAU"> F  </i>
  <i type="int" name="I_CONSTRAINED_M">     0</i>
  <separator name="electronic exchange-correlation" >
   <i type="string" name="GGA">PE</i>
   <i type="int" name="VOSKOWN">     0</i>
   <i type="logical" name="LHFCALC"> F  </i>
   <i type="string" name="PRECFOCK"></i>
   <i type="logical" name="LSYMGRAD"> F  </i>
   <i type="logical" name="LHFONE"> F  </i>
   <i type="logical" name="LRHFCALC"> F  </i>
   <i type="logical" name="LTHOMAS"> F  </i>
   <i type="logical" name="LMODELHF"> F  </i>
   <i name="ENCUT4O">     -1.00000000</i>
   <i type="int" name="EXXOEP">     0</i>
   <i type="int" name="FOURORBIT">     0</i>
   <i name="AEXX">      0.00000000</i>
   <i name="HFALPHA">      0.00000000</i>
   <i name="MCALPHA">      0.00000000</i>
   <i name="ALDAX">      1.00000000</i>
   <i name="AGGAX">      1.00000000</i>
   <i name="ALDAC">      1.00000000</i>
   <i name="AGGAC">      1.00000000</i>
   <i type="int" name="NKREDX">     1</i>
   <i type="int" name="NKREDY">     1</i>
   <i type="int" name="NKREDZ">     1</i>
   <i type="logical" name="SHIFTRED"> F  </i>
   <i type="logical" name="ODDONLY"> F  </i>
   <i type="logical" name="EVENONLY"> F  </i>
   <i type="int" name="LMAXFOCK">     0</i>
   <i type="int" name="NMAXFOCKAE">     0</i>
   <i type="logical" name="LFOCKAEDFT"> F  </i>
   <i name="HFSCREEN">      0.00000000</i>
   <i name="HFSCREENC">      0.00000000</i>
   <i type="int" name="NBANDSGWLOW">     0</i>
  </separator>
  <separator name="vdW DFT" >
   <i type="logical" name="LUSE_VDW"> F  </i>
   <i name="Zab_VDW">     -0.84910000</i>
   <i name="PARAM1">      0.12340000</i>
   <i name="PARAM2">      1.00000000</i>
   <i name="PARAM3">      0.00000000</i>
  </separator>
  <separator name="model GW" >
   <i type="int" name="MODEL_GW">     0</i>
   <i name="MODEL_EPS0">     68.06682538</i>
   <i name="MODEL_ALPHA">      1.00000000</i>
  </separator>
  <separator name="linear response parameters" >
   <i type="logical" name="LEPSILON"> F  </i>
   <i type="logical" name="LRPA"> F  </i>
   <i type="logical" name="LNABLA"> F  </i>
   <i type="logical" name="LVEL"> F  </i>
   <i type="int" name="KINTER">     0</i>
   <i name="CSHIFT">      0.10000000</i>
   <i name="OMEGAMAX">     -1.00000000</i>
   <i name="DEG_THRESHOLD">      0.00200000</i>
   <i name="RTIME">     -0.10000000</i>
   <i name="WPLASMAI">      0.00000000</i>
   <v name="DFIELD">      0.00000000      0.00000000      0.00000000</v>
   <v name="WPLASMA">      0.00000000      0.00000000      0.00000000      0.00000000      0.00000000      0.00000000      0.00000000      0.00000000      0.00000000</v>
  </separator>
  <separator name="orbital magnetization" >
   <i type="logical" name="NUCIND"> F  </i>
   <v name="MAGPOS">      0.00000000      0.00000000      0.00000000</v>
   <i type="logical" name="LNICSALL"> T  </i>
   <i type="logical" name="ORBITALMAG"> F  </i>
   <i type="logical" name="LMAGBLOCH"> F  </i>
   <i type="logical" name="LCHIMAG"> F  </i>
   <i type="logical" name="LGAUGE"> T  </i>
   <i type="int" name="MAGATOM">     0</i>
   <v name="MAGDIPOL">      0.00000000      0.00000000      0.00000000</v>
   <v name="AVECCONST">      0.00000000      0.00000000      0.00000000</v>
  </separator>
  <separator name="response functions" >
   <i type="logical" name="LADDER"> F  </i>
   <i type="logical" name="LRPAFORCE"> F  </i>
   <i type="logical" name="LFXC"> F  </i>
   <i type="logical" name="LHARTREE"> T  </i>
   <i type="int" name="IBSE">     0</i>
   <v type="int" name="KPOINT">    -1     0     0     0</v>
   <i type="logical" name="LTCTE"> F  </i>
   <i type="logical" name="LTETE"> F  </i>
   <i type="logical" name="LTRIPLET"> F  </i>
   <i type="logical" name="LFXCEPS"> F  </i>
   <i type="logical" name="LFXHEG"> F  </i>
   <i type="int" name="NATURALO">     2</i>
   <i type="logical" name="L2ORDER"> F  </i>
   <i type="logical" name="LMP2LT"> F  </i>
   <i type="logical" name="LUSEW"> F  </i>
   <i name="ENCUTGW">     -2.00000000</i>
   <i name="ENCUTGWSOFT">     -2.00000000</i>
   <i name="ENCUTLF">     -1.00000000</i>
   <i type="int" name="LMAXMP2">    -1</i>
   <i name="SCISSOR">      0.00000000</i>
   <i type="int" name="NOMEGA">     0</i>
   <i type="int" name="NOMEGAR">     0</i>
   <i type="int" name="NBANDSGW">    -1</i>
   <i type="int" name="NBANDSO">    -1</i>
   <i type="int" name="NBANDSV">    -1</i>
   <i type="int" name="NELM">   200</i>
   <i type="int" name="NELMHF">     1</i>
   <i type="int" name="DIM">     3</i>
   <i type="int" name="ANTIRES">     0</i>
   <i name="OMEGAMAX">    -30.00000000</i>
   <i name="OMEGAMIN">    -30.00000000</i>
   <i name="OMEGATL">   -200.00000000</i>
   <i type="int" name="OMEGAGRID">   140</i>
   <i name="CSHIFT">     -0.10000000</i>
   <i type="logical" name="SELFENERGY"> F  </i>
   <i type="logical" name="LSPECTRAL"> F  </i>
   <i type="logical" name="LSPECTRALGW"> F  </i>
   <i type="logical" name="LSINGLES"> F  </i>
   <i type="logical" name="LFERMIGW"> F  </i>
   <i type="logical" name="ODDONLYGW"> F  </i>
   <i type="logical" name="EVENONLYGW"> F  </i>
   <i type="int" name="NKREDLFX">     1</i>
   <i type="int" name="NKREDLFY">     1</i>
   <i type="int" name="NKREDLFZ">     1</i>
   <i type="int" name="MAXMEM">  2800</i>
   <i type="int" name="TELESCOPE">     0</i>
   <i type="int" name="TAUPAR">     1</i>
   <i type="int" name="OMEGAPAR">    -1</i>
   <i name="LAMBDA">      1.00000000</i>
  </separator>
  <separator name="External order field" >
   <i name="OFIELD_KAPPA">      0.00000000</i>
   <v name="OFIELD_K">      0.00000000      0.00000000      0.00000000</v>
   <i name="OFIELD_Q6_NEAR">      0.00000000</i>
   <i name="OFIELD_Q6_FAR">      0.00000000</i>
   <i name="OFIELD_A">      0.00000000</i>
  </separator>
  <separator name="solvation model" >
   <i type="logical" name="LSOL"> F  </i>
  </separator>
 </parameters>
 <atominfo>
  <atoms>      92 </atoms>
  <types>       3 </types>
  <array name="atoms" >
   <dimension dim="1">ion</dimension>
   <field type="string">element</field>
   <field type="int">atomtype</field>
   <set>
    <rc><c>N </c><c>   1</c></rc>
    <rc><c>N </c><c>   1</c></rc>
    <rc><c>N </c><c>   1</c></rc>
    <rc><c>N </c><c>   1</c></rc>
    <rc><c>N </c><c>   1</c></rc>
    <rc><c>N </c><c>   1</c></rc>
    <rc><c>N </c><c>   1</c></rc>
    <rc><c>N </c><c>   1</c></rc>
    <rc><c>N </c><c>   1</c></rc>
    <rc><c>N </c><c>   1</c></rc>
    <rc><c>N </c><c>   1</c></rc>
    <rc><c>C </c><c>   2</c></rc>
    <rc><c>C </c><c>   2</c></rc>
    <rc><c>C </c><c>   2</c></rc>
    <rc><c>C </c><c>   2</c></rc>
    <rc><c>C </c><c>   2</c></rc>
    <rc><c>C </c><c>   2</c></rc>
    <rc><c>C </c><c>   2</c></rc>
    <rc><c>C </c><c>   2</c></rc>
    <rc><c>C </c><c>   2</c></rc>
    <rc><c>C </c><c>   2</c></rc>
    <rc><c>C </c><c>   2</c></rc>
    <rc><c>C </c><c>   2</c></rc>
    <rc><c>C </c><c>   2</c></rc>
    <rc><c>C </c><c>   2</c></rc>
    <rc><c>C </c><c>   2</c></rc>
    <rc><c>C </c><c>   2</c></rc>
    <rc><c>C </c><c>   2</c></rc>
    <rc><c>C </c><c>   2</c></rc>
    <rc><c>C </c><c>   2</c></rc>
    <rc><c>C </c><c>   2</c></rc>
    <rc><c>C </c><c>   2</c></rc>
    <rc><c>C </c><c>   2</c></rc>
    <rc><c>C </c><c>   2</c></rc>
    <rc><c>C </c><c>   2</c></rc>
    <rc><c>C </c><c>   2</c></rc>
    <rc><c>C </c><c>   2</c></rc>
    <rc><c>C </c><c>   2</c></rc>
    <rc><c>C </c><c>   2</c></rc>
    <rc><c>C </c><c>   2</c></rc>
    <rc><c>C </c><c>   2</c></rc>
    <rc><c>C </c><c>   2</c></rc>
    <rc><c>C </c><c>   2</c></rc>
    <rc><c>C </c><c>   2</c></rc>
    <rc><c>C </c><c>   2</c></rc>
    <rc><c>C </c><c>   2</c></rc>
    <rc><c>C </c><c>   2</c></rc>
    <rc><c>C </c><c>   2</c></rc>
    <rc><c>C </c><c>   2</c></rc>
    <rc><c>C </c><c>   2</c></rc>
    <rc><c>C </c><c>   2</c></rc>
    <rc><c>C </c><c>   2</c></rc>
    <rc><c>C </c><c>   2</c></rc>
    <rc><c>C </c><c>   2</c></rc>
    <rc><c>C </c><c>   2</c></rc>
    <rc><c>C </c><c>   2</c></rc>
    <rc><c>C </c><c>   2</c></rc>
    <rc><c>C </c><c>   2</c></rc>
    <rc><c>C </c><c>   2</c></rc>
    <rc><c>H </c><c>   3</c></rc>
    <rc><c>H </c><c>   3</c></rc>
    <rc><c>H </c><c>   3</c></rc>
    <rc><c>H </c><c>   3</c></rc>
    <rc><c>H </c><c>   3</c></rc>
    <rc><c>H </c><c>   3</c></rc>
    <rc><c>H </c><c>   3</c></rc>
    <rc><c>H </c><c>   3</c></rc>
    <rc><c>H </c><c>   3</c></rc>
    <rc><c>H </c><c>   3</c></rc>
    <rc><c>H </c><c>   3</c></rc>
    <rc><c>H </c><c>   3</c></rc>
    <rc><c>H </c><c>   3</c></rc>
    <rc><c>H </c><c>   3</c></rc>
    <rc><c>H </c><c>   3</c></rc>
    <rc><c>H </c><c>   3</c></rc>
    <rc><c>H </c><c>   3</c></rc>
    <rc><c>H </c><c>   3</c></rc>
    <rc><c>H </c><c>   3</c></rc>
    <rc><c>H </c><c>   3</c></rc>
    <rc><c>H </c><c>   3</c></rc>
    <rc><c>H </c><c>   3</c></rc>
    <rc><c>H </c><c>   3</c></rc>
    <rc><c>H </c><c>   3</c></rc>
    <rc><c>H </c><c>   3</c></rc>
    <rc><c>H </c><c>   3</c></rc>
    <rc><c>H </c><c>   3</c></rc>
    <rc><c>H </c><c>   3</c></rc>
    <rc><c>H </c><c>   3</c></rc>
    <rc><c>H </c><c>   3</c></rc>
    <rc><c>H </c><c>   3</c></rc>
    <rc><c>H </c><c>   3</c></rc>
    <rc><c>H </c><c>   3</c></rc>
   </set>
  </array>
  <array name="atomtypes" >
   <dimension dim="1">type</dimension>
   <field type="int">atomspertype</field>
   <field type="string">element</field>
   <field>mass</field>
   <field>valence</field>
   <field type="string">pseudopotential</field>
   <set>
    <rc><c>  11</c><c>N </c><c>     14.00100000</c><c>      5.00000000</c><c>  PAW_PBE N 08Apr2002                   </c></rc>
    <rc><c>  48</c><c>C </c><c>     12.01100000</c><c>      4.00000000</c><c>  PAW_PBE C 08Apr2002                   </c></rc>
    <rc><c>  33</c><c>H </c><c>      1.00000000</c><c>      1.00000000</c><c>  PAW_PBE H 15Jun2001                   </c></rc>
   </set>
  </array>
 </atominfo>
 <structure name="initialpos" >
  <crystal>
   <varray name="basis" >
    <v>      24.51851464      -0.08625937       0.00000000 </v>
    <v>     -12.33363681      21.32713016       0.00000000 </v>
    <v>       0.00000000       0.00000000      20.00000000 </v>
   </varray>
   <i name="volume">  10436.91322564 </i>
   <varray name="rec_basis" >
    <v>       0.04086865       0.02363464       0.00000000 </v>
    <v>       0.00016530       0.04698423       0.00000000 </v>
    <v>       0.00000000       0.00000000       0.05000000 </v>
   </varray>
  </crystal>
  <varray name="positions" >
   <v>       0.69698670       0.37560722       0.51792509 </v>
   <v>       0.36668962       0.71037574       0.52461094 </v>
   <v>       0.53621743       0.51100698       0.57650642 </v>
   <v>       0.47554394       0.53833088       0.63987621 </v>
   <v>       0.99491526       0.56957238       0.54810252 </v>
   <v>       0.08241828       0.66363142       0.57573806 </v>
   <v>       0.55755634       0.07997929       0.58651907 </v>
   <v>       0.53028578       0.99227748       0.65040795 </v>
   <v>       0.53341661       0.58002544       0.46783443 </v>
   <v>       0.06784566       0.51941216       0.50517277 </v>
   <v>       0.48718872       0.00693793       0.47869715 </v>
   <v>       0.66428259       0.40945513       0.51697612 </v>
   <v>       0.76350308       0.40814174       0.51990479 </v>
   <v>       0.66188909       0.30911974       0.52044986 </v>
   <v>       0.67955627       0.27559697       0.56365948 </v>
   <v>       0.64412976       0.21043241       0.56640393 </v>
   <v>       0.59026015       0.17643400       0.52611796 </v>
   <v>       0.57286796       0.21044275       0.48321634 </v>
   <v>       0.60795674       0.27566430       0.48029731 </v>
   <v>       0.68393386       0.46156400       0.47464731 </v>
   <v>       0.65244346       0.49532404       0.47503931 </v>
   <v>       0.60045006       0.47823465       0.51742606 </v>
   <v>       0.58094461       0.42570284       0.55925653 </v>
   <v>       0.61204754       0.39166245       0.55903788 </v>
   <v>       0.79724307       0.46617225       0.55332933 </v>
   <v>       0.86272560       0.49847363       0.55440621 </v>
   <v>       0.89749579       0.47441480       0.52290537 </v>
   <v>       0.86329229       0.41609593       0.49007498 </v>
   <v>       0.79772129       0.38355807       0.48830621 </v>
   <v>       0.39909184       0.67660300       0.52322665 </v>
   <v>       0.29954249       0.67696923       0.52712356 </v>
   <v>       0.39890559       0.77665615       0.52726117 </v>
   <v>       0.45613456       0.81111261       0.56217245 </v>
   <v>       0.48638771       0.87637377       0.56500937 </v>
   <v>       0.46085438       0.90977196       0.53350112 </v>
   <v>       0.40391112       0.87480076       0.49799831 </v>
   <v>       0.37341497       0.80971928       0.49494544 </v>
   <v>       0.37372033       0.61819276       0.55569596 </v>
   <v>       0.40615187       0.58534224       0.55575554 </v>
   <v>       0.46500448       0.60934280       0.52374750 </v>
   <v>       0.48902057       0.66693262       0.48958074 </v>
   <v>       0.45696601       0.70001626       0.48916691 </v>
   <v>       0.26800990       0.68978326       0.57763142 </v>
   <v>       0.20228704       0.65819236       0.57936619 </v>
   <v>       0.16600761       0.61277609       0.53073396 </v>
   <v>       0.19847700       0.59929739       0.48124444 </v>
   <v>       0.26400407       0.63080316       0.47921747 </v>
   <v>       0.50080863       0.57588281       0.52330566 </v>
   <v>       0.56698051       0.51396599       0.51960166 </v>
   <v>       0.50427795       0.54172228       0.57960957 </v>
   <v>       0.09627604       0.57797419       0.53010426 </v>
   <v>       0.96705664       0.51028441       0.52470750 </v>
   <v>       0.05789859       0.60346069       0.55114601 </v>
   <v>       0.49256321       0.97903401       0.53389208 </v>
   <v>       0.55383410       0.10722253       0.52964658 </v>
   <v>       0.52678712       0.01724462       0.59000340 </v>
   <v>       0.56599517       0.54994688       0.46556778 </v>
   <v>       0.00501960       0.48591552       0.50268723 </v>
   <v>       0.51671762       0.06958291       0.47628465 </v>
   <v>       0.66934580       0.53620746       0.44248715 </v>
   <v>       0.72453905       0.47575586       0.44201283 </v>
   <v>       0.59648983       0.35117624       0.59189499 </v>
   <v>       0.54114432       0.41253173       0.59277095 </v>
   <v>       0.72112208       0.30121529       0.59528953 </v>
   <v>       0.65742223       0.18457862       0.60058821 </v>
   <v>       0.77149340       0.48559471       0.57864940 </v>
   <v>       0.88849461       0.54325750       0.58052672 </v>
   <v>       0.88797073       0.39595949       0.46391763 </v>
   <v>       0.77241482       0.33891364       0.46179978 </v>
   <v>       0.59362339       0.30135458       0.44711250 </v>
   <v>       0.53080328       0.18579204       0.45208735 </v>
   <v>       0.38454667       0.53954818       0.58017498 </v>
   <v>       0.32822182       0.59851288       0.58086619 </v>
   <v>       0.47664612       0.74455746       0.46247489 </v>
   <v>       0.53345370       0.68504009       0.46253937 </v>
   <v>       0.47708901       0.78653384       0.58687398 </v>
   <v>       0.53149225       0.90181714       0.59110776 </v>
   <v>       0.29548250       0.72444138       0.61592323 </v>
   <v>       0.17909960       0.66714953       0.62092281 </v>
   <v>       0.17085532       0.56364895       0.44392652 </v>
   <v>       0.28845605       0.62046332       0.44009733 </v>
   <v>       0.32935027       0.78362874       0.46718755 </v>
   <v>       0.38442868       0.90003243       0.47178468 </v>
   <v>       0.46509466       0.57226585       0.65064714 </v>
   <v>       0.49113250       0.52302548       0.67849412 </v>
   <v>       0.12684660       0.69620583       0.56175125 </v>
   <v>       0.05070514       0.67864179       0.57686461 </v>
   <v>       0.49616665       0.94773608       0.66130752 </v>
   <v>       0.54562471       0.02331485       0.68894428 </v>
   <v>       0.59068500       0.55351562       0.41888423 </v>
   <v>       0.98460803       0.43827551       0.48305850 </v>
   <v>       0.51206988       0.09020370       0.42985494 </v>
  </varray>
 </structure>
 <calculation>
  <scstep>
   <time name="dav">  628.21  635.33</time>
   <time name="total">  628.39  635.52</time>
   <energy>
    <i name="alphaZ">     34.96193455 </i>
    <i name="ewald">  32673.73825953 </i>
    <i name="hartreedc"> -41185.77750430 </i>
    <i name="XCdc">    974.16764187 </i>
    <i name="pawpsdc">  26165.63481354 </i>
    <i name="pawaedc"> -26215.13387158 </i>
    <i name="eentropy">     -0.00000000 </i>
    <i name="bandstr">  -3475.91655194 </i>
    <i name="atom">  10385.05977032 </i>
    <i name="e_fr_energy">   -643.26550802 </i>
    <i name="e_wo_entrp">   -643.26550802 </i>
    <i name="e_0_energy">   -643.26550802 </i>
   </energy>
  </scstep>
  <scstep>
   <time name="dav">  740.21  748.60</time>
   <time name="total">  740.21  748.60</time>
   <energy>
    <i name="e_fr_energy">   -643.95790351 </i>
    <i name="e_wo_entrp">   -643.95790351 </i>
    <i name="e_0_energy">   -643.95790351 </i>
   </energy>
  </scstep>
  <scstep>
   <time name="dav">  781.90  790.69</time>
   <time name="total">  781.90  790.69</time>
   <energy>
    <i name="e_fr_energy">   -643.97530401 </i>
    <i name="e_wo_entrp">   -643.97530401 </i>
    <i name="e_0_energy">   -643.97530401 </i>
   </energy>
  </scstep>
  <scstep>
   <time name="dav">  732.43  740.81</time>
   <time name="total">  732.44  740.81</time>
   <energy>
    <i name="e_fr_energy">   -643.97566324 </i>
    <i name="e_wo_entrp">   -643.97566324 </i>
    <i name="e_0_energy">   -643.97566324 </i>
   </energy>
  </scstep>
  <scstep>
   <time name="dav">  714.83  722.87</time>
   <time name="total">  714.83  722.88</time>
   <energy>
    <i name="e_fr_energy">   -643.97568259 </i>
    <i name="e_wo_entrp">   -643.97568259 </i>
    <i name="e_0_energy">   -643.97568259 </i>
   </energy>
  </scstep>
  <scstep>
   <time name="dav">  564.99  571.19</time>
   <time name="total">  565.00  571.19</time>
   <energy>
    <i name="alphaZ">     34.96193455 </i>
    <i name="ewald">  32673.73825953 </i>
    <i name="hartreedc"> -41185.77750430 </i>
    <i name="XCdc">    974.16764187 </i>
    <i name="pawpsdc">  26165.63481354 </i>
    <i name="pawaedc"> -26215.13387158 </i>
    <i name="eentropy">     -0.00000000 </i>
    <i name="bandstr">  -3476.62672710 </i>
    <i name="atom">  10385.05977032 </i>
    <i name="e_fr_energy">   -643.97568317 </i>
    <i name="e_wo_entrp">   -643.97568317 </i>
    <i name="e_0_energy">   -643.97568317 </i>
   </energy>
  </scstep>
  <structure>
   <crystal>
    <varray name="basis" >
     <v>      24.51851464      -0.08625937       0.00000000 </v>
     <v>     -12.33363681      21.32713016       0.00000000 </v>
     <v>       0.00000000       0.00000000      20.00000000 </v>
    </varray>
    <i name="volume">  10436.91322564 </i>
    <varray name="rec_basis" >
     <v>       0.04086865       0.02363464       0.00000000 </v>
     <v>       0.00016530       0.04698423       0.00000000 </v>
     <v>       0.00000000       0.00000000       0.05000000 </v>
    </varray>
   </crystal>
   <varray name="positions" >
    <v>       0.69698670       0.37560722       0.51792509 </v>
    <v>       0.36668962       0.71037574       0.52461094 </v>
    <v>       0.53621743       0.51100698       0.57650642 </v>
    <v>       0.47554394       0.53833088       0.63987621 </v>
    <v>       0.99491526       0.56957238       0.54810252 </v>
    <v>       0.08241828       0.66363142       0.57573806 </v>
    <v>       0.55755634       0.07997929       0.58651907 </v>
    <v>       0.53028578       0.99227748       0.65040795 </v>
    <v>       0.53341661       0.58002544       0.46783443 </v>
    <v>       0.06784566       0.51941216       0.50517277 </v>
    <v>       0.48718872       0.00693793       0.47869715 </v>
    <v>       0.66428259       0.40945513       0.51697612 </v>
    <v>       0.76350308       0.40814174       0.51990479 </v>
    <v>       0.66188909       0.30911974       0.52044986 </v>
    <v>       0.67955627       0.27559697       0.56365948 </v>
    <v>       0.64412976       0.21043241       0.56640393 </v>
    <v>       0.59026015       0.17643400       0.52611796 </v>
    <v>       0.57286796       0.21044275       0.48321634 </v>
    <v>       0.60795674       0.27566430       0.48029731 </v>
    <v>       0.68393386       0.46156400       0.47464731 </v>
    <v>       0.65244346       0.49532404       0.47503931 </v>
    <v>       0.60045006       0.47823465       0.51742606 </v>
    <v>       0.58094461       0.42570284       0.55925653 </v>
    <v>       0.61204754       0.39166245       0.55903788 </v>
    <v>       0.79724307       0.46617225       0.55332933 </v>
    <v>       0.86272560       0.49847363       0.55440621 </v>
    <v>       0.89749579       0.47441480       0.52290537 </v>
    <v>       0.86329229       0.41609593       0.49007498 </v>
    <v>       0.79772129       0.38355807       0.48830621 </v>
    <v>       0.39909184       0.67660300       0.52322665 </v>
    <v>       0.29954249       0.67696923       0.52712356 </v>
    <v>       0.39890559       0.77665615       0.52726117 </v>
    <v>       0.45613456       0.81111261       0.56217245 </v>
    <v>       0.48638771       0.87637377       0.56500937 </v>
    <v>       0.46085438       0.90977196       0.53350112 </v>
    <v>       0.40391112       0.87480076       0.49799831 </v>
    <v>       0.37341497       0.80971928       0.49494544 </v>
    <v>       0.37372033       0.61819276       0.55569596 </v>
    <v>       0.40615187       0.58534224       0.55575554 </v>
    <v>       0.46500448       0.60934280       0.52374750 </v>
    <v>       0.48902057       0.66693262       0.48958074 </v>
    <v>       0.45696601       0.70001626       0.48916691 </v>
    <v>       0.26800990       0.68978326       0.57763142 </v>
    <v>       0.20228704       0.65819236       0.57936619 </v>
    <v>       0.16600761       0.61277609       0.53073396 </v>
    <v>       0.19847700       0.59929739       0.48124444 </v>
    <v>       0.26400407       0.63080316       0.47921747 </v>
    <v>       0.50080863       0.57588281       0.52330566 </v>
    <v>       0.56698051       0.51396599       0.51960166 </v>
    <v>       0.50427795       0.54172228       0.57960957 </v>
    <v>       0.09627604       0.57797419       0.53010426 </v>
    <v>       0.96705664       0.51028441       0.52470750 </v>
    <v>       0.05789859       0.60346069       0.55114601 </v>
    <v>       0.49256321       0.97903401       0.53389208 </v>
    <v>       0.55383410       0.10722253       0.52964658 </v>
    <v>       0.52678712       0.01724462       0.59000340 </v>
    <v>       0.56599517       0.54994688       0.46556778 </v>
    <v>       0.00501960       0.48591552       0.50268723 </v>
    <v>       0.51671762       0.06958291       0.47628465 </v>
    <v>       0.66934580       0.53620746       0.44248715 </v>
    <v>       0.72453905       0.47575586       0.44201283 </v>
    <v>       0.59648983       0.35117624       0.59189499 </v>
    <v>       0.54114432       0.41253173       0.59277095 </v>
    <v>       0.72112208       0.30121529       0.59528953 </v>
    <v>       0.65742223       0.18457862       0.60058821 </v>
    <v>       0.77149340       0.48559471       0.57864940 </v>
    <v>       0.88849461       0.54325750       0.58052672 </v>
    <v>       0.88797073       0.39595949       0.46391763 </v>
    <v>       0.77241482       0.33891364       0.46179978 </v>
    <v>       0.59362339       0.30135458       0.44711250 </v>
    <v>       0.53080328       0.18579204       0.45208735 </v>
    <v>       0.38454667       0.53954818       0.58017498 </v>
    <v>       0.32822182       0.59851288       0.58086619 </v>
    <v>       0.47664612       0.74455746       0.46247489 </v>
    <v>       0.53345370       0.68504009       0.46253937 </v>
    <v>       0.47708901       0.78653384       0.58687398 </v>
    <v>       0.53149225       0.90181714       0.59110776 </v>
    <v>       0.29548250       0.72444138       0.61592323 </v>
    <v>       0.17909960       0.66714953       0.62092281 </v>
    <v>       0.17085532       0.56364895       0.44392652 </v>
    <v>       0.28845605       0.62046332       0.44009733 </v>
    <v>       0.32935027       0.78362874       0.46718755 </v>
    <v>       0.38442868       0.90003243       0.47178468 </v>
    <v>       0.46509466       0.57226585       0.65064714 </v>
    <v>       0.49113250       0.52302548       0.67849412 </v>
    <v>       0.12684660       0.69620583       0.56175125 </v>
    <v>       0.05070514       0.67864179       0.57686461 </v>
    <v>       0.49616665       0.94773608       0.66130752 </v>
    <v>       0.54562471       0.02331485       0.68894428 </v>
    <v>       0.59068500       0.55351562       0.41888423 </v>
    <v>       0.98460803       0.43827551       0.48305850 </v>
    <v>       0.51206988       0.09020370       0.42985494 </v>
   </varray>
  </structure>
  <varray name="forces" >
   <v>      -0.00057712       0.00043018       0.00774527 </v>
   <v>      -0.00427617       0.00057680       0.00528033 </v>
   <v>      -0.02159786       0.00797339       0.00641956 </v>
   <v>       0.00060745       0.00031585      -0.00049131 </v>
   <v>       0.00877307       0.01731828       0.00842379 </v>
   <v>       0.00518410      -0.00232029      -0.00378648 </v>
   <v>       0.00863098      -0.02047130       0.01486206 </v>
   <v>      -0.00243981       0.00475610      -0.00345253 </v>
   <v>       0.03052790      -0.00320403      -0.01029160 </v>
   <v>      -0.01350549      -0.02187833      -0.00810490 </v>
   <v>      -0.00900987       0.02055251      -0.01160549 </v>
   <v>       0.01386815      -0.00648414      -0.00444988 </v>
   <v>      -0.01278808      -0.00412924       0.00066992 </v>
   <v>       0.00329141       0.01642315       0.00066952 </v>
   <v>       0.00836723      -0.01709548       0.00481656 </v>
   <v>       0.00636457       0.01577918       0.00902370 </v>
   <v>       0.00028369      -0.04023533       0.00055983 </v>
   <v>      -0.00169903       0.01526052      -0.00855050 </v>
   <v>      -0.01075113      -0.01464971       0.00053025 </v>
   <v>      -0.00756288       0.01993542      -0.00367508 </v>
   <v>       0.01383519      -0.00379863      -0.00997995 </v>
   <v>      -0.03262976       0.02291398      -0.00338036 </v>
   <v>       0.00784693      -0.00975739       0.00927566 </v>
   <v>      -0.01674770       0.00043709       0.00316823 </v>
   <v>       0.01058515       0.01224116      -0.00060823 </v>
   <v>      -0.01678675       0.00083174       0.00516120 </v>
   <v>       0.03555746       0.01923133       0.00261069 </v>
   <v>      -0.00916259      -0.01912928      -0.00711181 </v>
   <v>       0.01977832       0.00153279      -0.00229819 </v>
   <v>      -0.01718258       0.00991798      -0.00533074 </v>
   <v>       0.02087998       0.01003970      -0.00182209 </v>
   <v>      -0.00019418      -0.01673794       0.00341630 </v>
   <v>       0.00860750       0.01584607       0.00217698 </v>
   <v>       0.00510047      -0.01758687       0.01196095 </v>
   <v>      -0.00202200       0.03610866       0.00050921 </v>
   <v>      -0.00551273      -0.01468452      -0.01126207 </v>
   <v>      -0.00618260       0.01304915      -0.00273040 </v>
   <v>       0.00603524      -0.01196836       0.00292854 </v>
   <v>      -0.01709265       0.00278100       0.01076696 </v>
   <v>       0.03313290      -0.01653531       0.00129419 </v>
   <v>      -0.01182397       0.01185599      -0.01196553 </v>
   <v>       0.01422391      -0.00141200      -0.00169670 </v>
   <v>      -0.02548991       0.00459977       0.00070769 </v>
   <v>       0.01108831       0.02179925       0.00815768 </v>
   <v>      -0.03315409      -0.01460135      -0.00395332 </v>
   <v>       0.02627725       0.00030986      -0.00540434 </v>
   <v>      -0.00988342      -0.02153697      -0.00098684 </v>
   <v>      -0.03289446       0.01375286       0.00453960 </v>
   <v>       0.03189875      -0.01611982      -0.00295447 </v>
   <v>       0.01525594      -0.01738219       0.00475592 </v>
   <v>       0.04075564       0.01942975       0.00077658 </v>
   <v>      -0.03313833      -0.02230426      -0.00453579 </v>
   <v>      -0.02522219      -0.00501130      -0.00003338 </v>
   <v>       0.00532636      -0.03955234       0.00597806 </v>
   <v>       0.00046875       0.03683487      -0.00032055 </v>
   <v>       0.00979262       0.02445579       0.00257287 </v>
   <v>      -0.01367322       0.01603547      -0.00063544 </v>
   <v>       0.01581355       0.00470145      -0.00253918 </v>
   <v>      -0.00727829      -0.01926591      -0.00233444 </v>
   <v>      -0.00006829      -0.00177111       0.00191713 </v>
   <v>       0.00122527       0.00065196      -0.00031750 </v>
   <v>      -0.00067579      -0.00525714       0.00265429 </v>
   <v>      -0.00013877      -0.00037597       0.00133308 </v>
   <v>       0.00148590       0.00008347      -0.00158278 </v>
   <v>      -0.00187483       0.00225143      -0.00193585 </v>
   <v>      -0.00009778      -0.00093104       0.00282490 </v>
   <v>      -0.00016051      -0.00303421       0.00183846 </v>
   <v>      -0.00303785       0.00093664      -0.00332960 </v>
   <v>      -0.00085780       0.00207182      -0.00139274 </v>
   <v>      -0.00344596       0.00106727      -0.00180164 </v>
   <v>      -0.00029298      -0.00072717      -0.00074807 </v>
   <v>      -0.00044119      -0.00043761       0.00144879 </v>
   <v>      -0.00204878      -0.00137621       0.00040721 </v>
   <v>       0.00018360       0.00058816      -0.00100214 </v>
   <v>       0.00038505       0.00020452      -0.00133095 </v>
   <v>      -0.00094209      -0.00143900       0.00091722 </v>
   <v>       0.00165573      -0.00110930       0.00091234 </v>
   <v>      -0.00294897      -0.00138558      -0.00419492 </v>
   <v>       0.00146522       0.00082192      -0.00148312 </v>
   <v>       0.00097975      -0.00259365       0.00331104 </v>
   <v>      -0.00170428      -0.00279715       0.00216149 </v>
   <v>      -0.00100956       0.00065120       0.00022028 </v>
   <v>       0.00078110       0.00129341      -0.00251349 </v>
   <v>      -0.00130434       0.00164953      -0.00001936 </v>
   <v>       0.00043963      -0.00068738       0.00032796 </v>
   <v>      -0.00238416      -0.00031013       0.00082725 </v>
   <v>      -0.00346381       0.00024072       0.00012146 </v>
   <v>      -0.00068722       0.00172399       0.00083385 </v>
   <v>       0.00005055      -0.00524121      -0.00460388 </v>
   <v>      -0.00177456      -0.00075562       0.00090273 </v>
   <v>       0.00163124      -0.00515044       0.00305805 </v>
   <v>       0.00119658       0.00096907      -0.00322800 </v>
  </varray>
  <varray name="stress" >
   <v>      -0.03545188      -0.01174286       0.00214462 </v>
   <v>      -0.01174286      -0.02987055       0.00260073 </v>
   <v>       0.00214462       0.00260073      -0.17606734 </v>
  </varray>
  <energy>
   <i name="e_fr_energy">   -645.89472691 </i>
   <i name="e_wo_entrp">   -645.89472691 </i>
   <i name="e_0_energy">     -0.00000000 </i>
  </energy>
  <time name="totalsc"> 4907.15 4964.30</time>
  <eigenvalues>
   <array>
    <dimension dim="1">band</dimension>
    <dimension dim="2">kpoint</dimension>
    <dimension dim="3">spin</dimension>
    <field>eigene</field>
    <field>occ</field>
    <set>
     <set comment="spin 1">
      <set comment="kpoint 1">
       <r>  -24.2511    1.0000 </r>
       <r>  -24.2367    1.0000 </r>
       <r>  -24.2190    1.0000 </r>
       <r>  -24.1291    1.0000 </r>
       <r>  -24.1033    1.0000 </r>
       <r>  -22.7041    1.0000 </r>
       <r>  -22.6838    1.0000 </r>
       <r>  -22.6600    1.0000 </r>
       <r>  -21.8337    1.0000 </r>
       <r>  -21.8233    1.0000 </r>
       <r>  -21.7963    1.0000 </r>
       <r>  -21.1144    1.0000 </r>
       <r>  -21.0858    1.0000 </r>
       <r>  -20.9799    1.0000 </r>
       <r>  -20.9716    1.0000 </r>
       <r>  -20.6356    1.0000 </r>
       <r>  -20.5420    1.0000 </r>
       <r>  -19.2164    1.0000 </r>
       <r>  -19.2006    1.0000 </r>
       <r>  -18.8852    1.0000 </r>
       <r>  -18.8754    1.0000 </r>
       <r>  -18.7479    1.0000 </r>
       <r>  -18.3131    1.0000 </r>
       <r>  -18.2710    1.0000 </r>
       <r>  -18.2195    1.0000 </r>
       <r>  -18.1994    1.0000 </r>
       <r>  -18.1756    1.0000 </r>
       <r>  -18.1349    1.0000 </r>
       <r>  -17.9013    1.0000 </r>
       <r>  -17.6572    1.0000 </r>
       <r>  -17.6489    1.0000 </r>
       <r>  -16.7178    1.0000 </r>
       <r>  -16.3542    1.0000 </r>
       <r>  -16.3483    1.0000 </r>
       <r>  -15.7113    1.0000 </r>
       <r>  -15.6875    1.0000 </r>
       <r>  -15.6713    1.0000 </r>
       <r>  -15.4244    1.0000 </r>
       <r>  -15.2572    1.0000 </r>
       <r>  -15.2335    1.0000 </r>
       <r>  -14.8224    1.0000 </r>
       <r>  -14.7629    1.0000 </r>
       <r>  -14.7302    1.0000 </r>
       <r>  -14.6166    1.0000 </r>
       <r>  -14.5873    1.0000 </r>
       <r>  -14.4640    1.0000 </r>
       <r>  -14.2591    1.0000 </r>
       <r>  -14.2421    1.0000 </r>
       <r>  -13.8120    1.0000 </r>
       <r>  -13.7489    1.0000 </r>
       <r>  -13.1526    1.0000 </r>
       <r>  -13.1488    1.0000 </r>
       <r>  -13.0819    1.0000 </r>
       <r>  -12.9807    1.0000 </r>
       <r>  -12.9746    1.0000 </r>
       <r>  -12.8578    1.0000 </r>
       <r>  -12.8387    1.0000 </r>
       <r>  -12.6878    1.0000 </r>
       <r>  -12.4725    1.0000 </r>
       <r>  -12.4506    1.0000 </r>
       <r>  -12.3524    1.0000 </r>
       <r>  -12.0148    1.0000 </r>
       <r>  -11.9699    1.0000 </r>
       <r>  -11.5638    1.0000 </r>
       <r>  -11.4715    1.0000 </r>
       <r>  -11.4436    1.0000 </r>
       <r>  -11.4335    1.0000 </r>
       <r>  -11.1787    1.0000 </r>
       <r>  -11.1498    1.0000 </r>
       <r>  -11.1431    1.0000 </r>
       <r>  -10.9122    1.0000 </r>
       <r>  -10.7819    1.0000 </r>
       <r>  -10.7710    1.0000 </r>
       <r>  -10.6951    1.0000 </r>
       <r>  -10.6646    1.0000 </r>
       <r>  -10.6106    1.0000 </r>
       <r>  -10.5256    1.0000 </r>
       <r>  -10.4563    1.0000 </r>
       <r>  -10.3809    1.0000 </r>
       <r>  -10.3380    1.0000 </r>
       <r>  -10.2947    1.0000 </r>
       <r>  -10.2529    1.0000 </r>
       <r>  -10.0955    1.0000 </r>
       <r>  -10.0781    1.0000 </r>
       <r>  -10.0431    1.0000 </r>
       <r>   -9.9679    1.0000 </r>
       <r>   -9.9181    1.0000 </r>
       <r>   -9.9072    1.0000 </r>
       <r>   -9.8922    1.0000 </r>
       <r>   -9.8532    1.0000 </r>
       <r>   -9.8475    1.0000 </r>
       <r>   -9.6522    1.0000 </r>
       <r>   -9.6115    1.0000 </r>
       <r>   -9.1988    1.0000 </r>
       <r>   -9.0782    1.0000 </r>
       <r>   -9.0192    1.0000 </r>
       <r>   -8.9900    1.0000 </r>
       <r>   -8.9341    1.0000 </r>
       <r>   -8.8639    1.0000 </r>
       <r>   -8.8592    1.0000 </r>
       <r>   -8.7243    1.0000 </r>
       <r>   -8.5786    1.0000 </r>
       <r>   -8.5704    1.0000 </r>
       <r>   -8.5404    1.0000 </r>
       <r>   -8.5047    1.0000 </r>
       <r>   -8.2590    1.0000 </r>
       <r>   -8.1847    1.0000 </r>
       <r>   -8.1121    1.0000 </r>
       <r>   -8.0739    1.0000 </r>
       <r>   -8.0307    1.0000 </r>
       <r>   -7.9148    1.0000 </r>
       <r>   -7.8733    1.0000 </r>
       <r>   -7.8317    1.0000 </r>
       <r>   -7.8284    1.0000 </r>
       <r>   -7.7643    1.0000 </r>
       <r>   -7.5571    1.0000 </r>
       <r>   -7.5283    1.0000 </r>
       <r>   -7.3191    1.0000 </r>
       <r>   -6.7229    1.0000 </r>
       <r>   -6.6045    1.0000 </r>
       <r>   -6.5651    1.0000 </r>
       <r>   -6.4604    1.0000 </r>
       <r>   -6.3161    1.0000 </r>
       <r>   -6.2886    1.0000 </r>
       <r>   -6.2330    1.0000 </r>
       <r>   -6.2161    1.0000 </r>
       <r>   -6.0839    1.0000 </r>
       <r>   -6.0715    1.0000 </r>
       <r>   -6.0262    1.0000 </r>
       <r>   -5.9943    1.0000 </r>
       <r>   -5.8941    1.0000 </r>
       <r>   -5.8686    1.0000 </r>
       <r>   -5.3053    1.0000 </r>
       <r>   -5.2368    1.0000 </r>
       <r>   -5.2269    1.0000 </r>
       <r>   -5.2123    1.0000 </r>
       <r>   -4.8799    1.0000 </r>
       <r>   -4.8445    1.0000 </r>
       <r>   -4.5348    1.0000 </r>
       <r>   -3.9922    1.0000 </r>
       <r>   -2.3082    0.0000 </r>
       <r>   -2.2455    0.0000 </r>
       <r>   -1.7902    0.0000 </r>
       <r>   -1.4038    0.0000 </r>
       <r>   -1.3492    0.0000 </r>
       <r>   -1.2861    0.0000 </r>
       <r>   -1.2605    0.0000 </r>
       <r>   -1.1746    0.0000 </r>
       <r>   -1.1476    0.0000 </r>
       <r>   -0.9434    0.0000 </r>
       <r>   -0.8530    0.0000 </r>
       <r>   -0.8063    0.0000 </r>
       <r>   -0.6984    0.0000 </r>
       <r>   -0.6171    0.0000 </r>
       <r>   -0.4046    0.0000 </r>
       <r>   -0.2325    0.0000 </r>
       <r>   -0.1658    0.0000 </r>
       <r>   -0.1433    0.0000 </r>
       <r>   -0.0784    0.0000 </r>
       <r>    0.0185    0.0000 </r>
       <r>    0.0439    0.0000 </r>
       <r>    0.1716    0.0000 </r>
       <r>    0.2124    0.0000 </r>
       <r>    0.2184    0.0000 </r>
       <r>    0.3457    0.0000 </r>
       <r>    0.4010    0.0000 </r>
       <r>    0.4667    0.0000 </r>
       <r>    0.5218    0.0000 </r>
       <r>    0.5492    0.0000 </r>
       <r>    0.5692    0.0000 </r>
       <r>    0.5925    0.0000 </r>
       <r>    0.6631    0.0000 </r>
       <r>    0.6743    0.0000 </r>
       <r>    0.7191    0.0000 </r>
       <r>    0.7399    0.0000 </r>
       <r>    0.8130    0.0000 </r>
       <r>    0.8342    0.0000 </r>
       <r>    0.8488    0.0000 </r>
       <r>    0.8615    0.0000 </r>
       <r>    0.8902    0.0000 </r>
       <r>    0.9125    0.0000 </r>
       <r>    0.9189    0.0000 </r>
       <r>    0.9255    0.0000 </r>
       <r>    0.9466    0.0000 </r>
       <r>    0.9869    0.0000 </r>
       <r>    1.0056    0.0000 </r>
       <r>    1.0557    0.0000 </r>
       <r>    1.1080    0.0000 </r>
       <r>    1.1243    0.0000 </r>
       <r>    1.1559    0.0000 </r>
       <r>    1.1828    0.0000 </r>
       <r>    1.2200    0.0000 </r>
      </set>
      <set comment="kpoint 2">
       <r>  -24.2511    1.0000 </r>
       <r>  -24.2367    1.0000 </r>
       <r>  -24.2190    1.0000 </r>
       <r>  -24.1291    1.0000 </r>
       <r>  -24.1033    1.0000 </r>
       <r>  -22.7041    1.0000 </r>
       <r>  -22.6838    1.0000 </r>
       <r>  -22.6600    1.0000 </r>
       <r>  -21.8337    1.0000 </r>
       <r>  -21.8232    1.0000 </r>
       <r>  -21.7963    1.0000 </r>
       <r>  -21.1144    1.0000 </r>
       <r>  -21.0856    1.0000 </r>
       <r>  -20.9800    1.0000 </r>
       <r>  -20.9716    1.0000 </r>
       <r>  -20.6355    1.0000 </r>
       <r>  -20.5420    1.0000 </r>
       <r>  -19.2164    1.0000 </r>
       <r>  -19.2003    1.0000 </r>
       <r>  -18.8856    1.0000 </r>
       <r>  -18.8773    1.0000 </r>
       <r>  -18.7453    1.0000 </r>
       <r>  -18.3132    1.0000 </r>
       <r>  -18.2711    1.0000 </r>
       <r>  -18.2195    1.0000 </r>
       <r>  -18.1994    1.0000 </r>
       <r>  -18.1756    1.0000 </r>
       <r>  -18.1349    1.0000 </r>
       <r>  -17.9039    1.0000 </r>
       <r>  -17.6575    1.0000 </r>
       <r>  -17.6456    1.0000 </r>
       <r>  -16.7204    1.0000 </r>
       <r>  -16.3539    1.0000 </r>
       <r>  -16.3459    1.0000 </r>
       <r>  -15.7113    1.0000 </r>
       <r>  -15.6877    1.0000 </r>
       <r>  -15.6714    1.0000 </r>
       <r>  -15.4272    1.0000 </r>
       <r>  -15.2560    1.0000 </r>
       <r>  -15.2318    1.0000 </r>
       <r>  -14.8230    1.0000 </r>
       <r>  -14.7637    1.0000 </r>
       <r>  -14.7307    1.0000 </r>
       <r>  -14.6158    1.0000 </r>
       <r>  -14.5865    1.0000 </r>
       <r>  -14.4638    1.0000 </r>
       <r>  -14.2593    1.0000 </r>
       <r>  -14.2425    1.0000 </r>
       <r>  -13.8120    1.0000 </r>
       <r>  -13.7489    1.0000 </r>
       <r>  -13.1525    1.0000 </r>
       <r>  -13.1488    1.0000 </r>
       <r>  -13.0821    1.0000 </r>
       <r>  -12.9805    1.0000 </r>
       <r>  -12.9744    1.0000 </r>
       <r>  -12.8579    1.0000 </r>
       <r>  -12.8389    1.0000 </r>
       <r>  -12.6878    1.0000 </r>
       <r>  -12.4727    1.0000 </r>
       <r>  -12.4507    1.0000 </r>
       <r>  -12.3521    1.0000 </r>
       <r>  -12.0148    1.0000 </r>
       <r>  -11.9700    1.0000 </r>
       <r>  -11.5637    1.0000 </r>
       <r>  -11.4716    1.0000 </r>
       <r>  -11.4443    1.0000 </r>
       <r>  -11.4329    1.0000 </r>
       <r>  -11.1790    1.0000 </r>
       <r>  -11.1496    1.0000 </r>
       <r>  -11.1430    1.0000 </r>
       <r>  -10.9125    1.0000 </r>
       <r>  -10.7818    1.0000 </r>
       <r>  -10.7709    1.0000 </r>
       <r>  -10.6951    1.0000 </r>
       <r>  -10.6648    1.0000 </r>
       <r>  -10.6103    1.0000 </r>
       <r>  -10.5256    1.0000 </r>
       <r>  -10.4564    1.0000 </r>
       <r>  -10.3808    1.0000 </r>
       <r>  -10.3379    1.0000 </r>
       <r>  -10.2946    1.0000 </r>
       <r>  -10.2526    1.0000 </r>
       <r>  -10.0971    1.0000 </r>
       <r>  -10.0782    1.0000 </r>
       <r>  -10.0416    1.0000 </r>
       <r>   -9.9677    1.0000 </r>
       <r>   -9.9180    1.0000 </r>
       <r>   -9.9071    1.0000 </r>
       <r>   -9.8922    1.0000 </r>
       <r>   -9.8534    1.0000 </r>
       <r>   -9.8474    1.0000 </r>
       <r>   -9.6524    1.0000 </r>
       <r>   -9.6117    1.0000 </r>
       <r>   -9.1987    1.0000 </r>
       <r>   -9.0783    1.0000 </r>
       <r>   -9.0200    1.0000 </r>
       <r>   -8.9890    1.0000 </r>
       <r>   -8.9339    1.0000 </r>
       <r>   -8.8640    1.0000 </r>
       <r>   -8.8593    1.0000 </r>
       <r>   -8.7245    1.0000 </r>
       <r>   -8.5787    1.0000 </r>
       <r>   -8.5704    1.0000 </r>
       <r>   -8.5402    1.0000 </r>
       <r>   -8.5047    1.0000 </r>
       <r>   -8.2589    1.0000 </r>
       <r>   -8.1847    1.0000 </r>
       <r>   -8.1121    1.0000 </r>
       <r>   -8.0740    1.0000 </r>
       <r>   -8.0308    1.0000 </r>
       <r>   -7.9147    1.0000 </r>
       <r>   -7.8733    1.0000 </r>
       <r>   -7.8321    1.0000 </r>
       <r>   -7.8281    1.0000 </r>
       <r>   -7.7642    1.0000 </r>
       <r>   -7.5573    1.0000 </r>
       <r>   -7.5290    1.0000 </r>
       <r>   -7.3180    1.0000 </r>
       <r>   -6.7243    1.0000 </r>
       <r>   -6.6042    1.0000 </r>
       <r>   -6.5644    1.0000 </r>
       <r>   -6.4604    1.0000 </r>
       <r>   -6.3161    1.0000 </r>
       <r>   -6.2886    1.0000 </r>
       <r>   -6.2329    1.0000 </r>
       <r>   -6.2162    1.0000 </r>
       <r>   -6.0839    1.0000 </r>
       <r>   -6.0715    1.0000 </r>
       <r>   -6.0262    1.0000 </r>
       <r>   -5.9944    1.0000 </r>
       <r>   -5.8942    1.0000 </r>
       <r>   -5.8686    1.0000 </r>
       <r>   -5.3051    1.0000 </r>
       <r>   -5.2367    1.0000 </r>
       <r>   -5.2269    1.0000 </r>
       <r>   -5.2122    1.0000 </r>
       <r>   -4.8802    1.0000 </r>
       <r>   -4.8457    1.0000 </r>
       <r>   -4.5330    1.0000 </r>
       <r>   -3.9929    1.0000 </r>
       <r>   -2.3080    0.0000 </r>
       <r>   -2.2449    0.0000 </r>
       <r>   -1.7912    0.0000 </r>
       <r>   -1.4039    0.0000 </r>
       <r>   -1.3496    0.0000 </r>
       <r>   -1.2861    0.0000 </r>
       <r>   -1.2603    0.0000 </r>
       <r>   -1.1748    0.0000 </r>
       <r>   -1.1466    0.0000 </r>
       <r>   -0.9430    0.0000 </r>
       <r>   -0.8530    0.0000 </r>
       <r>   -0.8062    0.0000 </r>
       <r>   -0.6984    0.0000 </r>
       <r>   -0.6171    0.0000 </r>
       <r>   -0.4045    0.0000 </r>
       <r>   -0.2339    0.0000 </r>
       <r>   -0.1679    0.0000 </r>
       <r>   -0.1429    0.0000 </r>
       <r>   -0.0780    0.0000 </r>
       <r>    0.0195    0.0000 </r>
       <r>    0.0454    0.0000 </r>
       <r>    0.1716    0.0000 </r>
       <r>    0.2125    0.0000 </r>
       <r>    0.2185    0.0000 </r>
       <r>    0.3458    0.0000 </r>
       <r>    0.4011    0.0000 </r>
       <r>    0.4659    0.0000 </r>
       <r>    0.5226    0.0000 </r>
       <r>    0.5495    0.0000 </r>
       <r>    0.5692    0.0000 </r>
       <r>    0.5926    0.0000 </r>
       <r>    0.6605    0.0000 </r>
       <r>    0.6760    0.0000 </r>
       <r>    0.7147    0.0000 </r>
       <r>    0.7443    0.0000 </r>
       <r>    0.8109    0.0000 </r>
       <r>    0.8338    0.0000 </r>
       <r>    0.8493    0.0000 </r>
       <r>    0.8622    0.0000 </r>
       <r>    0.8885    0.0000 </r>
       <r>    0.9125    0.0000 </r>
       <r>    0.9195    0.0000 </r>
       <r>    0.9270    0.0000 </r>
       <r>    0.9483    0.0000 </r>
       <r>    0.9870    0.0000 </r>
       <r>    1.0058    0.0000 </r>
       <r>    1.0566    0.0000 </r>
       <r>    1.1071    0.0000 </r>
       <r>    1.1234    0.0000 </r>
       <r>    1.1540    0.0000 </r>
       <r>    1.1850    0.0000 </r>
       <r>    1.2210    0.0000 </r>
      </set>
      <set comment="kpoint 3">
       <r>  -24.2511    1.0000 </r>
       <r>  -24.2367    1.0000 </r>
       <r>  -24.2190    1.0000 </r>
       <r>  -24.1291    1.0000 </r>
       <r>  -24.1033    1.0000 </r>
       <r>  -22.7041    1.0000 </r>
       <r>  -22.6838    1.0000 </r>
       <r>  -22.6600    1.0000 </r>
       <r>  -21.8337    1.0000 </r>
       <r>  -21.8231    1.0000 </r>
       <r>  -21.7965    1.0000 </r>
       <r>  -21.1144    1.0000 </r>
       <r>  -21.0853    1.0000 </r>
       <r>  -20.9805    1.0000 </r>
       <r>  -20.9717    1.0000 </r>
       <r>  -20.6351    1.0000 </r>
       <r>  -20.5423    1.0000 </r>
       <r>  -19.2164    1.0000 </r>
       <r>  -19.1995    1.0000 </r>
       <r>  -18.8884    1.0000 </r>
       <r>  -18.8810    1.0000 </r>
       <r>  -18.7379    1.0000 </r>
       <r>  -18.3132    1.0000 </r>
       <r>  -18.2714    1.0000 </r>
       <r>  -18.2196    1.0000 </r>
       <r>  -18.1993    1.0000 </r>
       <r>  -18.1755    1.0000 </r>
       <r>  -18.1349    1.0000 </r>
       <r>  -17.9115    1.0000 </r>
       <r>  -17.6579    1.0000 </r>
       <r>  -17.6366    1.0000 </r>
       <r>  -16.7282    1.0000 </r>
       <r>  -16.3536    1.0000 </r>
       <r>  -16.3384    1.0000 </r>
       <r>  -15.7113    1.0000 </r>
       <r>  -15.6882    1.0000 </r>
       <r>  -15.6719    1.0000 </r>
       <r>  -15.4351    1.0000 </r>
       <r>  -15.2530    1.0000 </r>
       <r>  -15.2263    1.0000 </r>
       <r>  -14.8250    1.0000 </r>
       <r>  -14.7659    1.0000 </r>
       <r>  -14.7322    1.0000 </r>
       <r>  -14.6135    1.0000 </r>
       <r>  -14.5840    1.0000 </r>
       <r>  -14.4631    1.0000 </r>
       <r>  -14.2599    1.0000 </r>
       <r>  -14.2436    1.0000 </r>
       <r>  -13.8118    1.0000 </r>
       <r>  -13.7490    1.0000 </r>
       <r>  -13.1524    1.0000 </r>
       <r>  -13.1488    1.0000 </r>
       <r>  -13.0827    1.0000 </r>
       <r>  -12.9800    1.0000 </r>
       <r>  -12.9737    1.0000 </r>
       <r>  -12.8582    1.0000 </r>
       <r>  -12.8396    1.0000 </r>
       <r>  -12.6876    1.0000 </r>
       <r>  -12.4731    1.0000 </r>
       <r>  -12.4508    1.0000 </r>
       <r>  -12.3512    1.0000 </r>
       <r>  -12.0148    1.0000 </r>
       <r>  -11.9701    1.0000 </r>
       <r>  -11.5634    1.0000 </r>
       <r>  -11.4720    1.0000 </r>
       <r>  -11.4458    1.0000 </r>
       <r>  -11.4312    1.0000 </r>
       <r>  -11.1799    1.0000 </r>
       <r>  -11.1491    1.0000 </r>
       <r>  -11.1426    1.0000 </r>
       <r>  -10.9133    1.0000 </r>
       <r>  -10.7817    1.0000 </r>
       <r>  -10.7709    1.0000 </r>
       <r>  -10.6952    1.0000 </r>
       <r>  -10.6652    1.0000 </r>
       <r>  -10.6096    1.0000 </r>
       <r>  -10.5256    1.0000 </r>
       <r>  -10.4567    1.0000 </r>
       <r>  -10.3807    1.0000 </r>
       <r>  -10.3376    1.0000 </r>
       <r>  -10.2941    1.0000 </r>
       <r>  -10.2520    1.0000 </r>
       <r>  -10.1014    1.0000 </r>
       <r>  -10.0788    1.0000 </r>
       <r>  -10.0379    1.0000 </r>
       <r>   -9.9673    1.0000 </r>
       <r>   -9.9178    1.0000 </r>
       <r>   -9.9070    1.0000 </r>
       <r>   -9.8921    1.0000 </r>
       <r>   -9.8539    1.0000 </r>
       <r>   -9.8470    1.0000 </r>
       <r>   -9.6529    1.0000 </r>
       <r>   -9.6123    1.0000 </r>
[...]
       <r>   -23.0928     0.0000    10.0000 </r>
       <r>   -22.9992     0.0000    10.0000 </r>
       <r>   -22.9055     0.0000    10.0000 </r>
       <r>   -22.8118     0.0000    10.0000 </r>
       <r>   -22.7181     0.5050    10.0473 </r>
       <r>   -22.6244    63.5414    16.0000 </r>
       <r>   -22.5308     0.0000    16.0000 </r>
       <r>   -22.4371     0.0000    16.0000 </r>
       <r>   -22.3434     0.0000    16.0000 </r>
       <r>   -22.2497     0.0000    16.0000 </r>
       <r>   -22.1560     0.0000    16.0000 </r>
       <r>   -22.0623     0.0000    16.0000 </r>
       <r>   -21.9687     0.0000    16.0000 </r>
       <r>   -21.8750     0.0000    16.0000 </r>
       <r>   -21.7813    63.9733    21.9931 </r>
       <r>   -21.6876     0.0000    22.0000 </r>
       <r>   -21.5939     0.0000    22.0000 </r>
       <r>   -21.5003     0.0000    22.0000 </r>
       <r>   -21.4066     0.0000    22.0000 </r>
       <r>   -21.3129     0.0000    22.0000 </r>
       <r>   -21.2192     0.0000    22.0000 </r>
       <r>   -21.1255     0.4587    22.0430 </r>
       <r>   -21.0318    35.3581    26.0236 </r>
       <r>   -20.9382    38.8516    30.0000 </r>
       <r>   -20.8445     0.0000    30.0000 </r>
       <r>   -20.7508     0.0000    30.0000 </r>
       <r>   -20.6571     0.0017    30.0002 </r>
       <r>   -20.5634    24.8640    32.3295 </r>
       <r>   -20.4697     3.8917    34.0000 </r>
       <r>   -20.3761     0.0000    34.0000 </r>
       <r>   -20.2824     0.0000    34.0000 </r>
       <r>   -20.1887     0.0000    34.0000 </r>
       <r>   -20.0950     0.0000    34.0000 </r>
       <r>   -20.0013     0.0000    34.0000 </r>
       <r>   -19.9077     0.0000    34.0000 </r>
       <r>   -19.8140     0.0000    34.0000 </r>
       <r>   -19.7203     0.0000    34.0000 </r>
       <r>   -19.6266     0.0000    34.0000 </r>
       <r>   -19.5329     0.0000    34.0000 </r>
       <r>   -19.4392     0.0000    34.0000 </r>
       <r>   -19.3456     0.0000    34.0000 </r>
       <r>   -19.2519     0.0000    34.0000 </r>
       <r>   -19.1582    27.9558    36.6190 </r>
       <r>   -19.0645    20.6551    39.0037 </r>
       <r>   -18.9708     2.5714    39.6913 </r>
       <r>   -18.8772    15.8891    41.2219 </r>
       <r>   -18.7835     0.0000    42.0000 </r>
       <r>   -18.6898     2.1527    42.2017 </r>
       <r>   -18.5961     1.5631    42.3798 </r>
       <r>   -18.5024     2.8334    42.6655 </r>
       <r>   -18.4087    10.0314    44.0080 </r>
       <r>   -18.3151    18.3786    45.8566 </r>
       <r>   -18.2214    27.0748    49.4089 </r>
       <r>   -18.1277    67.0927    56.2858 </r>
       <r>   -18.0340     2.8716    57.6699 </r>
       <r>   -17.9403     1.5546    57.8456 </r>
       <r>   -17.8466     1.4202    58.0000 </r>
       <r>   -17.7530     0.0000    58.0000 </r>
       <r>   -17.6593     6.2176    58.5825 </r>
       <r>   -17.5656     1.8042    60.2195 </r>
       <r>   -17.4719     1.2246    60.3481 </r>
       <r>   -17.3782     1.1661    60.4759 </r>
       <r>   -17.2846     8.0230    61.2516 </r>
       <r>   -17.1909     6.1012    61.9719 </r>
       <r>   -17.0972     6.4859    62.6081 </r>
       <r>   -17.0035     8.1531    63.4980 </r>
       <r>   -16.9098     1.0248    63.6293 </r>
       <r>   -16.8161     1.2992    63.7553 </r>
       <r>   -16.7225     1.9304    63.9476 </r>
       <r>   -16.6288     0.0000    64.0000 </r>
       <r>   -16.5351     0.0000    64.0000 </r>
       <r>   -16.4414     0.0000    64.0000 </r>
       <r>   -16.3477    11.4167    65.0695 </r>
       <r>   -16.2541     1.4999    66.2406 </r>
       <r>   -16.1604     1.0930    66.3691 </r>
       <r>   -16.0667     1.0738    66.5006 </r>
       <r>   -15.9730     9.4620    67.4197 </r>
       <r>   -15.8793     6.6213    68.1708 </r>
       <r>   -15.7856    12.5238    69.4735 </r>
       <r>   -15.6920    26.4955    71.9824 </r>
       <r>   -15.5983    25.4548    75.5880 </r>
       <r>   -15.5046     1.6313    75.7698 </r>
       <r>   -15.4109     2.1207    75.9987 </r>
       <r>   -15.3172     0.0000    76.0000 </r>
       <r>   -15.2236     4.1051    76.3846 </r>
       <r>   -15.1299    14.9303    77.8994 </r>
       <r>   -15.0362     2.2252    78.5419 </r>
       <r>   -14.9425    23.7408    81.0604 </r>
       <r>   -14.8488    19.3376    83.3493 </r>
       <r>   -14.7551     7.6673    84.1857 </r>
       <r>   -14.6615    14.0208    85.9980 </r>
       <r>   -14.5678    17.0422    87.5965 </r>
       <r>   -14.4741     6.5281    88.6125 </r>
       <r>   -14.3804    32.3179    91.9969 </r>
       <r>   -14.2867    28.3747    94.6589 </r>
       <r>   -14.1930     7.1016    96.0000 </r>
       <r>   -14.0994     0.0000    96.0000 </r>
       <r>   -14.0057     0.0000    96.0000 </r>
       <r>   -13.9120     0.0000    96.0000 </r>
       <r>   -13.8183     0.7569    96.0709 </r>
       <r>   -13.7246    37.8370    99.9999 </r>
       <r>   -13.6310     0.0000   100.0000 </r>
       <r>   -13.5373     0.0000   100.0000 </r>
       <r>   -13.4436     0.0000   100.0000 </r>
       <r>   -13.3499     0.0000   100.0000 </r>
       <r>   -13.2562     0.0000   100.0000 </r>
       <r>   -13.1625     2.6322   100.2466 </r>
       <r>   -13.0689    41.6576   105.9949 </r>
       <r>   -12.9752     3.7673   106.3529 </r>
       <r>   -12.8815    49.6083   111.8176 </r>
       <r>   -12.7878    11.1755   114.0000 </r>
       <r>   -12.6941     0.6572   114.0616 </r>
       <r>   -12.6005    16.7445   116.0000 </r>
       <r>   -12.5068     1.1754   116.1101 </r>
       <r>   -12.4131    29.8617   120.0000 </r>
       <r>   -12.3194     8.1490   120.7634 </r>
       <r>   -12.2257     0.0000   122.0000 </r>
       <r>   -12.1320     0.0000   122.0000 </r>
       <r>   -12.0384     0.0714   122.0067 </r>
       <r>   -11.9447    42.6244   125.9998 </r>
       <r>   -11.8510     0.0000   126.0000 </r>
       <r>   -11.7573     0.0000   126.0000 </r>
       <r>   -11.6636     0.0000   126.0000 </r>
       <r>   -11.5700     0.4316   126.0404 </r>
       <r>   -11.4763    37.3626   129.8184 </r>
       <r>   -11.3826    42.6216   133.9971 </r>
       <r>   -11.2889     0.0000   134.0000 </r>
       <r>   -11.1952    17.8728   135.6744 </r>
       <r>   -11.1015    30.0202   138.6974 </r>
       <r>   -11.0079    10.2440   140.0000 </r>
       <r>   -10.9142    20.1877   141.8912 </r>
       <r>   -10.8205     0.0000   142.0000 </r>
       <r>   -10.7268    42.6997   146.0002 </r>
       <r>   -10.6331    42.6930   149.9998 </r>
       <r>   -10.5394    24.4689   152.2924 </r>
       <r>   -10.4458    22.9314   155.9859 </r>
       <r>   -10.3521    15.2781   157.4313 </r>
       <r>   -10.2584    40.0124   161.8579 </r>
       <r>   -10.1647    31.0515   165.4434 </r>
       <r>   -10.0710    20.2270   167.9821 </r>
       <r>    -9.9774    20.0243   169.8759 </r>
       <r>    -9.8837    67.1871   176.5118 </r>
       <r>    -9.7900    42.6902   182.0000 </r>
       <r>    -9.6963    13.0310   183.2208 </r>
       <r>    -9.6026    25.2872   185.8044 </r>
       <r>    -9.5089     0.0000   186.0000 </r>
       <r>    -9.4153     0.0000   186.0000 </r>
       <r>    -9.3216     0.0000   186.0000 </r>
       <r>    -9.2279     0.0015   186.0001 </r>
       <r>    -9.1342    21.3473   188.0000 </r>
       <r>    -9.0405    35.8916   191.3624 </r>
       <r>    -8.9469    13.7482   192.9897 </r>
       <r>    -8.8532    57.9422   198.9160 </r>
       <r>    -8.7595     9.7558   200.9139 </r>
       <r>    -8.6658     4.6153   202.0000 </r>
       <r>    -8.5721    24.2343   204.2703 </r>
       <r>    -8.4784    42.6147   209.9922 </r>
       <r>    -8.3848     0.0000   210.0000 </r>
       <r>    -8.2911     0.0000   210.0000 </r>
       <r>    -8.1974    21.5210   212.0161 </r>
       <r>    -8.1037    38.5202   215.8181 </r>
       <r>    -8.0100    42.6896   219.9996 </r>
       <r>    -7.9163     3.2395   220.3035 </r>
       <r>    -7.8227    61.8288   226.8861 </r>
       <r>    -7.7290    20.1562   229.8883 </r>
       <r>    -7.6353    13.5567   231.2700 </r>
       <r>    -7.5416    12.0588   232.6469 </r>
       <r>    -7.4479     0.0000   234.0000 </r>
       <r>    -7.3543     0.0000   234.0000 </r>
       <r>    -7.2606     3.1705   234.2970 </r>
       <r>    -7.1669    10.8712   235.3520 </r>
       <r>    -7.0732     0.0000   236.0000 </r>
       <r>    -6.9795     0.0000   236.0000 </r>
       <r>    -6.8858    12.1292   237.1363 </r>
       <r>    -6.7922     2.4906   237.7170 </r>
       <r>    -6.6985     2.6661   238.0000 </r>
       <r>    -6.6048     1.4581   238.1366 </r>
       <r>    -6.5111    19.1929   240.7864 </r>
       <r>    -6.4174    23.9653   244.0000 </r>
       <r>    -6.3238     1.7359   244.1626 </r>
       <r>    -6.2301    28.4322   248.6636 </r>
       <r>    -6.1364    13.5786   252.0000 </r>
       <r>    -6.0427    43.5724   256.0820 </r>
       <r>    -5.9490    28.5336   260.0000 </r>
       <r>    -5.8553    42.0673   263.9410 </r>
       <r>    -5.7617     0.0000   264.0000 </r>
       <r>    -5.6680     0.0000   264.0000 </r>
       <r>    -5.5743     0.0000   264.0000 </r>
       <r>    -5.4806     0.0000   264.0000 </r>
       <r>    -5.3869     0.0000   264.0000 </r>
       <r>    -5.2933     2.3995   264.2248 </r>
       <r>    -5.1996    71.3029   271.0304 </r>
       <r>    -5.1059     0.0010   272.0001 </r>
       <r>    -5.0122    16.2387   273.5214 </r>
       <r>    -4.9185     2.1054   273.7640 </r>
       <r>    -4.8248    23.4740   275.9995 </r>
       <r>    -4.7312     0.0000   276.0000 </r>
       <r>    -4.6375     0.0000   276.0000 </r>
       <r>    -4.5438     0.0637   276.0060 </r>
       <r>    -4.4501     2.3098   276.2835 </r>
       <r>    -4.3564     1.7242   276.4618 </r>
       <r>    -4.2627    10.7052   277.5029 </r>
       <r>    -4.1691     8.8879   278.4835 </r>
       <r>    -4.0754     9.5837   279.5822 </r>
       <r>    -3.9817     3.8533   279.9943 </r>
       <r>    -3.8880     0.0000   280.0000 </r>
       <r>    -3.7943     0.0000   280.0000 </r>
       <r>    -3.7007     0.0000   280.0000 </r>
       <r>    -3.6070     0.0000   280.0000 </r>
       <r>    -3.5133     0.0000   280.0000 </r>
       <r>    -3.4196     0.0000   280.0000 </r>
       <r>    -3.3259     0.0000   280.0000 </r>
       <r>    -3.2322     0.0000   280.0000 </r>
       <r>    -3.1386     0.0000   280.0000 </r>
       <r>    -3.0449     0.0000   280.0000 </r>
       <r>    -2.9512     0.0000   280.0000 </r>
       <r>    -2.8575     0.0000   280.0000 </r>
       <r>    -2.7638     0.0000   280.0000 </r>
       <r>    -2.6702     0.0000   280.0000 </r>
       <r>    -2.5765     0.0000   280.0000 </r>
       <r>    -2.4828     0.0000   280.0000 </r>
       <r>    -2.3891     0.0000   280.0000 </r>
       <r>    -2.2954     8.1372   280.7623 </r>
       <r>    -2.2017     9.9463   282.3331 </r>
       <r>    -2.1081     7.8842   283.2392 </r>
       <r>    -2.0144     8.4787   284.2801 </r>
       <r>    -1.9207    11.0286   285.5511 </r>
       <r>    -1.8270     2.0380   285.7744 </r>
       <r>    -1.7333     1.7786   286.0000 </r>
       <r>    -1.6396     0.0000   286.0000 </r>
       <r>    -1.5460     0.0000   286.0000 </r>
       <r>    -1.4523     0.0000   286.0000 </r>
       <r>    -1.3586    40.3991   289.7847 </r>
       <r>    -1.2649    22.0932   292.0697 </r>
       <r>    -1.1712    16.7957   294.5712 </r>
       <r>    -1.0776    19.0821   297.5256 </r>
       <r>    -0.9839     0.0000   298.0000 </r>
       <r>    -0.8902     3.9113   298.3664 </r>
       <r>    -0.7965    42.8238   302.4290 </r>
       <r>    -0.7028    22.9130   305.0148 </r>
       <r>    -0.6091    20.1588   307.8885 </r>
       <r>    -0.5155     1.4757   308.1382 </r>
       <r>    -0.4218    11.3624   309.5666 </r>
       <r>    -0.3281    22.5145   311.7110 </r>
       <r>    -0.2344    13.8647   313.0322 </r>
       <r>    -0.1407    25.6001   315.7826 </r>
       <r>    -0.0471     4.8365   316.4531 </r>
       <r>     0.0466    29.9077   319.4720 </r>
       <r>     0.1403     6.4534   320.5906 </r>
       <r>     0.2340    48.1187   325.5277 </r>
       <r>     0.3277    26.2787   328.5645 </r>
       <r>     0.4214    37.9595   332.4256 </r>
       <r>     0.5150    22.5742   335.0011 </r>
       <r>     0.6087    54.1360   340.3728 </r>
       <r>     0.7024    80.4328   348.4946 </r>
       <r>     0.7961    48.9047   354.0026 </r>
       <r>     0.8898    52.6744   359.8385 </r>
       <r>     0.9834    50.0875   365.2797 </r>
       <r>     1.0771    63.1587   372.0048 </r>
       <r>     1.1708    56.5473   378.3352 </r>
       <r>     1.2645    49.3282   383.4769 </r>
       <r>     1.3582     2.6521   384.0000 </r>
       <r>     1.4519     0.0000   384.0000 </r>
       <r>     1.5455     0.0000   384.0000 </r>
       <r>     1.6392     0.0000   384.0000 </r>
       <r>     1.7329     0.0000   384.0000 </r>
       <r>     1.8266     0.0000   384.0000 </r>
       <r>     1.9203     0.0000   384.0000 </r>
       <r>     2.0140     0.0000   384.0000 </r>
       <r>     2.1076     0.0000   384.0000 </r>
       <r>     2.2013     0.0000   384.0000 </r>
       <r>     2.2950     0.0000   384.0000 </r>
       <r>     2.3887     0.0000   384.0000 </r>
       <r>     2.4824     0.0000   384.0000 </r>
       <r>     2.5760     0.0000   384.0000 </r>
      </set>
     </set>
    </array>
   </total>
  </dos>
 </calculation>
 <structure name="finalpos" >
  <crystal>
   <varray name="basis" >
    <v>      24.51851464      -0.08625937       0.00000000 </v>
    <v>     -12.33363681      21.32713016       0.00000000 </v>
    <v>       0.00000000       0.00000000      20.00000000 </v>
   </varray>
   <i name="volume">  10436.91322564 </i>
   <varray name="rec_basis" >
    <v>       0.04086865       0.02363464       0.00000000 </v>
    <v>       0.00016530       0.04698423       0.00000000 </v>
    <v>       0.00000000       0.00000000       0.05000000 </v>
   </varray>
  </crystal>
  <varray name="positions" >
   <v>       0.69698670       0.37560722       0.51792509 </v>
   <v>       0.36668962       0.71037574       0.52461094 </v>
   <v>       0.53621743       0.51100698       0.57650642 </v>
   <v>       0.47554394       0.53833088       0.63987621 </v>
   <v>       0.99491526       0.56957238       0.54810252 </v>
   <v>       0.08241828       0.66363142       0.57573806 </v>
   <v>       0.55755634       0.07997929       0.58651907 </v>
   <v>       0.53028578       0.99227748       0.65040795 </v>
   <v>       0.53341661       0.58002544       0.46783443 </v>
   <v>       0.06784566       0.51941216       0.50517277 </v>
   <v>       0.48718872       0.00693793       0.47869715 </v>
   <v>       0.66428259       0.40945513       0.51697612 </v>
   <v>       0.76350308       0.40814174       0.51990479 </v>
   <v>       0.66188909       0.30911974       0.52044986 </v>
   <v>       0.67955627       0.27559697       0.56365948 </v>
   <v>       0.64412976       0.21043241       0.56640393 </v>
   <v>       0.59026015       0.17643400       0.52611796 </v>
   <v>       0.57286796       0.21044275       0.48321634 </v>
   <v>       0.60795674       0.27566430       0.48029731 </v>
   <v>       0.68393386       0.46156400       0.47464731 </v>
   <v>       0.65244346       0.49532404       0.47503931 </v>
   <v>       0.60045006       0.47823465       0.51742606 </v>
   <v>       0.58094461       0.42570284       0.55925653 </v>
   <v>       0.61204754       0.39166245       0.55903788 </v>
   <v>       0.79724307       0.46617225       0.55332933 </v>
   <v>       0.86272560       0.49847363       0.55440621 </v>
   <v>       0.89749579       0.47441480       0.52290537 </v>
   <v>       0.86329229       0.41609593       0.49007498 </v>
   <v>       0.79772129       0.38355807       0.48830621 </v>
   <v>       0.39909184       0.67660300       0.52322665 </v>
   <v>       0.29954249       0.67696923       0.52712356 </v>
   <v>       0.39890559       0.77665615       0.52726117 </v>
   <v>       0.45613456       0.81111261       0.56217245 </v>
   <v>       0.48638771       0.87637377       0.56500937 </v>
   <v>       0.46085438       0.90977196       0.53350112 </v>
   <v>       0.40391112       0.87480076       0.49799831 </v>
   <v>       0.37341497       0.80971928       0.49494544 </v>
   <v>       0.37372033       0.61819276       0.55569596 </v>
   <v>       0.40615187       0.58534224       0.55575554 </v>
   <v>       0.46500448       0.60934280       0.52374750 </v>
   <v>       0.48902057       0.66693262       0.48958074 </v>
   <v>       0.45696601       0.70001626       0.48916691 </v>
   <v>       0.26800990       0.68978326       0.57763142 </v>
   <v>       0.20228704       0.65819236       0.57936619 </v>
   <v>       0.16600761       0.61277609       0.53073396 </v>
   <v>       0.19847700       0.59929739       0.48124444 </v>
   <v>       0.26400407       0.63080316       0.47921747 </v>
   <v>       0.50080863       0.57588281       0.52330566 </v>
   <v>       0.56698051       0.51396599       0.51960166 </v>
   <v>       0.50427795       0.54172228       0.57960957 </v>
   <v>       0.09627604       0.57797419       0.53010426 </v>
   <v>       0.96705664       0.51028441       0.52470750 </v>
   <v>       0.05789859       0.60346069       0.55114601 </v>
   <v>       0.49256321       0.97903401       0.53389208 </v>
   <v>       0.55383410       0.10722253       0.52964658 </v>
   <v>       0.52678712       0.01724462       0.59000340 </v>
   <v>       0.56599517       0.54994688       0.46556778 </v>
   <v>       0.00501960       0.48591552       0.50268723 </v>
   <v>       0.51671762       0.06958291       0.47628465 </v>
   <v>       0.66934580       0.53620746       0.44248715 </v>
   <v>       0.72453905       0.47575586       0.44201283 </v>
   <v>       0.59648983       0.35117624       0.59189499 </v>
   <v>       0.54114432       0.41253173       0.59277095 </v>
   <v>       0.72112208       0.30121529       0.59528953 </v>
   <v>       0.65742223       0.18457862       0.60058821 </v>
   <v>       0.77149340       0.48559471       0.57864940 </v>
   <v>       0.88849461       0.54325750       0.58052672 </v>
   <v>       0.88797073       0.39595949       0.46391763 </v>
   <v>       0.77241482       0.33891364       0.46179978 </v>
   <v>       0.59362339       0.30135458       0.44711250 </v>
   <v>       0.53080328       0.18579204       0.45208735 </v>
   <v>       0.38454667       0.53954818       0.58017498 </v>
   <v>       0.32822182       0.59851288       0.58086619 </v>
   <v>       0.47664612       0.74455746       0.46247489 </v>
   <v>       0.53345370       0.68504009       0.46253937 </v>
   <v>       0.47708901       0.78653384       0.58687398 </v>
   <v>       0.53149225       0.90181714       0.59110776 </v>
   <v>       0.29548250       0.72444138       0.61592323 </v>
   <v>       0.17909960       0.66714953       0.62092281 </v>
   <v>       0.17085532       0.56364895       0.44392652 </v>
   <v>       0.28845605       0.62046332       0.44009733 </v>
   <v>       0.32935027       0.78362874       0.46718755 </v>
   <v>       0.38442868       0.90003243       0.47178468 </v>
   <v>       0.46509466       0.57226585       0.65064714 </v>
   <v>       0.49113250       0.52302548       0.67849412 </v>
   <v>       0.12684660       0.69620583       0.56175125 </v>
   <v>       0.05070514       0.67864179       0.57686461 </v>
   <v>       0.49616665       0.94773608       0.66130752 </v>
   <v>       0.54562471       0.02331485       0.68894428 </v>
   <v>       0.59068500       0.55351562       0.41888423 </v>
   <v>       0.98460803       0.43827551       0.48305850 </v>
   <v>       0.51206988       0.09020370       0.42985494 </v>
  </varray>
 </structure>
</modeling>
