<?xml version="1.0" encoding="ISO-8859-1"?>
<modeling>
 <generator>
  <i name="program" type="string">vasp </i>
  <i name="version" type="string">5.4.4.18Apr17-6-g9f103f2a35  </i>
  <i name="subversion" type="string">(build Jun 07 2020 16:50:00) complex            parallel </i>
  <i name="platform" type="string">LinuxIFC </i>
  <i name="date" type="string">2023 02 23 </i>
  <i name="time" type="string">18:10:14 </i>
 </generator>
 <incar>
  <i type="string" name="SYSTEM">Simulation for cell shape cell volume r</i>
  <i type="int" name="ISTART">     1</i>
  <i type="string" name="PREC">high</i>
  <i type="string" name="ALGO">48</i>
  <i type="int" name="ICHARG">    11</i>
  <i type="int" name="NELM">   200</i>
  <i type="int" name="IBRION">    -1</i>
  <i name="EDIFF">      0.00001000</i>
  <i name="EDIFFG">     -0.01000000</i>
  <i type="int" name="NSW">     0</i>
  <i type="int" name="ISIF">     2</i>
  <i name="ENCUT">    500.00000000</i>
  <i name="POTIM">      0.30000000</i>
  <i type="string" name="LREAL">A</i>
  <i type="int" name="ISMEAR">     0</i>
  <i name="SIGMA">      0.01000000</i>
  <i type="int" name="NWRITE">     0</i>
  <i type="logical" name="LWAVE"> F  </i>
  <i type="logical" name="LCHARG"> F  </i>
  <v type="int" name="KPOINT_BSE">    -1     0     0     0</v>
  <i type="int" name="NELM">   200</i>
  <i type="string" name="GGA">PE</i>
 </incar>
 <structure name="primitive_cell" >
  <crystal>
   <varray name="basis" >
    <v>      24.88068610      -0.09201893       0.00000000 </v>
    <v>      -0.10881022      24.91605888       0.00000000 </v>
    <v>       0.00000000       0.00000000      20.00000000 </v>
   </varray>
   <i name="volume">  12398.37254072 </i>
   <varray name="rec_basis" >
    <v>       0.04019247       0.00017552       0.00000000 </v>
    <v>       0.00014844       0.04013541       0.00000000 </v>
    <v>       0.00000000       0.00000000       0.05000000 </v>
   </varray>
  </crystal>
  <varray name="positions" >
   <v>       0.29292406      -0.09480219       0.40116667 </v>
   <v>       0.27496598      -0.07394097       0.44361242 </v>
   <v>       0.21973666      -0.06422868       0.44412088 </v>
   <v>       0.30764038      -0.05726398       0.49680421 </v>
   <v>       0.37780448      -0.09882236       0.46105088 </v>
   <v>       0.19476934      -0.07708869       0.40214876 </v>
   <v>       0.36758082      -0.06572514       0.49553150 </v>
   <v>       0.38021861       0.00367741       0.43680748 </v>
   <v>       0.28367104      -0.03094698      -0.44900067 </v>
   <v>       0.19577381      -0.03761800       0.49811902 </v>
   <v>       0.39523145      -0.01599122       0.47698057 </v>
   <v>       0.38246032      -0.07726283      -0.45485025 </v>
   <v>       0.22860969      -0.02139078      -0.44820658 </v>
   <v>       0.15993477      -0.13899795      -0.48796316 </v>
   <v>       0.30859607      -0.01802547      -0.40694477 </v>
   <v>       0.13698759      -0.02639706       0.49856211 </v>
   <v>       0.44870276      -0.00697089       0.49133451 </v>
   <v>       0.11858062      -0.12584800      -0.49201095 </v>
   <v>       0.21033609      -0.00147270      -0.40537463 </v>
   <v>       0.20169055       0.07101280       0.49244492 </v>
   <v>       0.10088627      -0.07043184      -0.49896608 </v>
   <v>       0.47331318      -0.03893341      -0.46477056 </v>
   <v>       0.12250981       0.02807563       0.49737671 </v>
   <v>       0.45712595       0.06342086       0.42639435 </v>
   <v>       0.15825481       0.07352600       0.49477360 </v>
   <v>       0.47706500       0.03685844       0.46216156 </v>
   <v>       0.07325371      -0.15660974      -0.48969493 </v>
   <v>       0.04587084      -0.06766542       0.49963199 </v>
   <v>       0.07034408      -0.19980385      -0.48337010 </v>
   <v>      -0.47517761      -0.02740573      -0.44957970 </v>
   <v>       0.07114790       0.04816562       0.49888827 </v>
   <v>       0.02818113      -0.11978122      -0.49521497 </v>
   <v>      -0.47209868       0.04804201       0.47633379 </v>
   <v>       0.12778738       0.11924207       0.49602412 </v>
   <v>       0.03688033       0.02541267      -0.49920849 </v>
   <v>      -0.44646152       0.01610461      -0.47942969 </v>
   <v>      -0.44814128      -0.05995838      -0.40167875 </v>
   <v>       0.14207958       0.16046168       0.49565297 </v>
   <v>       0.07226240       0.10341832       0.49805837 </v>
   <v>      -0.00473532      -0.21163924       0.41170886 </v>
   <v>      -0.02606892      -0.13694989      -0.49305096 </v>
   <v>      -0.42195886      -0.08339479      -0.36292958 </v>
   <v>      -0.02413367      -0.22916817       0.45557783 </v>
   <v>      -0.03559893      -0.02498890      -0.49468913 </v>
   <v>      -0.39354213       0.02604943      -0.46604244 </v>
   <v>      -0.03766314      -0.19570485      -0.49049247 </v>
   <v>       0.02735884       0.13732240       0.49924933 </v>
   <v>       0.07451722       0.19635016       0.40000166 </v>
   <v>      -0.37594023       0.00368514      -0.42982385 </v>
   <v>      -0.07097211      -0.10300545      -0.49274602 </v>
   <v>      -0.37974087       0.08364025       0.46078709 </v>
   <v>      -0.06985462      -0.04778034      -0.49345433 </v>
   <v>      -0.03586817      -0.28392376       0.45743113 </v>
   <v>      -0.02517463      -0.30933642       0.41504920 </v>
   <v>      -0.04444628       0.06785812      -0.49391205 </v>
   <v>      -0.36456355       0.07367867      -0.48920672 </v>
   <v>       0.06307539       0.22083684       0.44284899 </v>
   <v>      -0.02684142       0.12001479      -0.49855498 </v>
   <v>       0.03820679       0.19621561       0.49796590 </v>
   <v>      -0.06308564      -0.21880097      -0.43472055 </v>
   <v>      -0.37293581       0.10850214      -0.45667779 </v>
   <v>      -0.07338742      -0.19342708      -0.39223012 </v>
   <v>      -0.30664794       0.02804723       0.41018375 </v>
   <v>      -0.06164713      -0.30683821      -0.48701384 </v>
   <v>      -0.12655405      -0.11884859      -0.49176797 </v>
   <v>      -0.12125116      -0.02776167      -0.49252397 </v>
   <v>      -0.07496726      -0.27363655      -0.43313166 </v>
   <v>      -0.00176252      -0.37693555      -0.42728263 </v>
   <v>       0.08726035      -0.42249579      -0.36348628 </v>
   <v>       0.07254794       0.27617554       0.44211742 </v>
   <v>      -0.09946197       0.07061241      -0.49513654 </v>
   <v>      -0.30506743       0.06269344      -0.49086309 </v>
   <v>       0.09195733       0.29465375       0.39874321 </v>
   <v>       0.02321550       0.22859320      -0.44763263 </v>
   <v>      -0.14084967      -0.16006135      -0.49181663 </v>
   <v>      -0.28170041       0.03789371       0.45347630 </v>
   <v>      -0.02503590      -0.39481895      -0.46267776 </v>
   <v>       0.06259713      -0.44843995      -0.40168500 </v>
   <v>       0.00427865       0.20985547      -0.40422332 </v>
   <v>      -0.07196811       0.15683213       0.49639551 </v>
   <v>      -0.13560516       0.02666082      -0.49309629 </v>
   <v>      -0.15705938      -0.07316065      -0.49091035 </v>
   <v>      -0.07297854      -0.36635305      -0.48441831 </v>
   <v>      -0.09490012      -0.29088211      -0.38935715 </v>
   <v>      -0.11725595       0.12601597       0.49857209 </v>
   <v>      -0.06913251       0.20006736       0.49054698 </v>
   <v>      -0.08415638      -0.38188030       0.46606793 </v>
   <v>       0.05733638       0.30833589       0.49618832 </v>
   <v>       0.03250522       0.28377152      -0.44865828 </v>
   <v>      -0.01549809      -0.44747244      -0.47657900 </v>
   <v>       0.02873588      -0.47558439      -0.44851797 </v>
   <v>      -0.27243080       0.07520085      -0.43589939 </v>
   <v>      -0.29003912       0.09453282      -0.39212270 </v>
   <v>      -0.22705625       0.02604850       0.45271136 </v>
   <v>      -0.10720343      -0.37480440      -0.45067825 </v>
   <v>      -0.20052844      -0.07060742      -0.48937969 </v>
   <v>      -0.20912747       0.00744814       0.40874466 </v>
   <v>       0.03979603       0.47319941      -0.46437308 </v>
   <v>      -0.04862645      -0.47344797       0.48039797 </v>
   <v>       0.02050959       0.30832324      -0.40604184 </v>
   <v>      -0.19425889       0.03857390      -0.49218674 </v>
   <v>      -0.15865504       0.13910515       0.49491759 </v>
   <v>       0.09836119       0.37908375       0.45946743 </v>
   <v>       0.06576454       0.36832656       0.49476311 </v>
   <v>      -0.21771271       0.06326625      -0.43643546 </v>
   <v>       0.07813084       0.38334365      -0.45589874 </v>
   <v>      -0.19265304       0.07310035      -0.39331715 </v>
   <v>      -0.03781602       0.47601302       0.46546836 </v>
   <v>       0.00681282       0.44831117       0.49270277 </v>
   <v>      -0.00489188       0.37989311       0.43806105 </v>
   <v>       0.01571298       0.39519290       0.47751705 </v>
   <v>      -0.06536501       0.45578275       0.43073877 </v>
  </varray>
 </structure>
 <varray name="primitive_index" >
  <v type="int" >        1 </v>
  <v type="int" >       48 </v>
  <v type="int" >       47 </v>
  <v type="int" >       88 </v>
  <v type="int" >       11 </v>
  <v type="int" >        2 </v>
  <v type="int" >       91 </v>
  <v type="int" >       14 </v>
  <v type="int" >       87 </v>
  <v type="int" >       85 </v>
  <v type="int" >      100 </v>
  <v type="int" >       37 </v>
  <v type="int" >       86 </v>
  <v type="int" >       23 </v>
  <v type="int" >       17 </v>
  <v type="int" >       57 </v>
  <v type="int" >       50 </v>
  <v type="int" >       61 </v>
  <v type="int" >       18 </v>
  <v type="int" >       19 </v>
  <v type="int" >       58 </v>
  <v type="int" >      107 </v>
  <v type="int" >       56 </v>
  <v type="int" >       13 </v>
  <v type="int" >       53 </v>
  <v type="int" >       49 </v>
  <v type="int" >       60 </v>
  <v type="int" >      104 </v>
  <v type="int" >       24 </v>
  <v type="int" >       94 </v>
  <v type="int" >      103 </v>
  <v type="int" >       59 </v>
  <v type="int" >       99 </v>
  <v type="int" >       54 </v>
  <v type="int" >       21 </v>
  <v type="int" >       93 </v>
  <v type="int" >       95 </v>
  <v type="int" >       20 </v>
  <v type="int" >       55 </v>
  <v type="int" >        3 </v>
  <v type="int" >       62 </v>
  <v type="int" >      108 </v>
  <v type="int" >       45 </v>
  <v type="int" >       22 </v>
  <v type="int" >      109 </v>
  <v type="int" >       81 </v>
  <v type="int" >       72 </v>
  <v type="int" >        7 </v>
  <v type="int" >       39 </v>
  <v type="int" >       63 </v>
  <v type="int" >        9 </v>
  <v type="int" >      105 </v>
  <v type="int" >       46 </v>
  <v type="int" >        4 </v>
  <v type="int" >      106 </v>
  <v type="int" >       89 </v>
  <v type="int" >       42 </v>
  <v type="int" >       69 </v>
  <v type="int" >       73 </v>
  <v type="int" >       84 </v>
  <v type="int" >       35 </v>
  <v type="int" >       25 </v>
  <v type="int" >        6 </v>
  <v type="int" >       82 </v>
  <v type="int" >       66 </v>
  <v type="int" >       64 </v>
  <v type="int" >       83 </v>
  <v type="int" >       40 </v>
  <v type="int" >      111 </v>
  <v type="int" >       41 </v>
  <v type="int" >       68 </v>
  <v type="int" >       80 </v>
  <v type="int" >        8 </v>
  <v type="int" >       74 </v>
  <v type="int" >       27 </v>
  <v type="int" >       43 </v>
  <v type="int" >      112 </v>
  <v type="int" >       98 </v>
  <v type="int" >       34 </v>
  <v type="int" >       70 </v>
  <v type="int" >       67 </v>
  <v type="int" >       65 </v>
  <v type="int" >       92 </v>
  <v type="int" >       26 </v>
  <v type="int" >       71 </v>
  <v type="int" >       29 </v>
  <v type="int" >       12 </v>
  <v type="int" >       76 </v>
  <v type="int" >       75 </v>
  <v type="int" >       96 </v>
  <v type="int" >       97 </v>
  <v type="int" >       79 </v>
  <v type="int" >       32 </v>
  <v type="int" >       44 </v>
  <v type="int" >       38 </v>
  <v type="int" >       28 </v>
  <v type="int" >        5 </v>
  <v type="int" >      110 </v>
  <v type="int" >      101 </v>
  <v type="int" >       33 </v>
  <v type="int" >       77 </v>
  <v type="int" >       30 </v>
  <v type="int" >       10 </v>
  <v type="int" >       90 </v>
  <v type="int" >       78 </v>
  <v type="int" >       36 </v>
  <v type="int" >       31 </v>
  <v type="int" >       51 </v>
  <v type="int" >       52 </v>
  <v type="int" >       16 </v>
  <v type="int" >      102 </v>
  <v type="int" >       15 </v>
 </varray>
 <kpoints>
  <generation param="listgenerated">
   <i name="divisions" type="int">      20 </i>
   <v>       0.00000000       0.00000000       0.00000000 </v>
   <v>       0.50000000      -0.50000000       0.00000000 </v>
   <v>       0.50399467      -0.49599385       0.00000000 </v>
   <v>       0.50000000       0.00000000       0.00000000 </v>
   <v>       0.49600533       0.49599385       0.00000000 </v>
   <v>       0.00000000       0.50000000       0.00000000 </v>
   <v>       0.00000000       0.00000000       0.00000000 </v>
  </generation>
  <varray name="kpointlist" >
   <v>       0.00000000       0.00000000       0.00000000 </v>
   <v>       0.02631579      -0.02631579       0.00000000 </v>
   <v>       0.05263158      -0.05263158       0.00000000 </v>
   <v>       0.07894737      -0.07894737       0.00000000 </v>
   <v>       0.10526316      -0.10526316       0.00000000 </v>
   <v>       0.13157895      -0.13157895       0.00000000 </v>
   <v>       0.15789474      -0.15789474       0.00000000 </v>
   <v>       0.18421053      -0.18421053       0.00000000 </v>
   <v>       0.21052632      -0.21052632       0.00000000 </v>
   <v>       0.23684211      -0.23684211       0.00000000 </v>
   <v>       0.26315789      -0.26315789       0.00000000 </v>
   <v>       0.28947368      -0.28947368       0.00000000 </v>
   <v>       0.31578947      -0.31578947       0.00000000 </v>
   <v>       0.34210526      -0.34210526       0.00000000 </v>
   <v>       0.36842105      -0.36842105       0.00000000 </v>
   <v>       0.39473684      -0.39473684       0.00000000 </v>
   <v>       0.42105263      -0.42105263       0.00000000 </v>
   <v>       0.44736842      -0.44736842       0.00000000 </v>
   <v>       0.47368421      -0.47368421       0.00000000 </v>
   <v>       0.50000000      -0.50000000       0.00000000 </v>
   <v>       0.50000000      -0.50000000       0.00000000 </v>
   <v>       0.50021025      -0.49978915       0.00000000 </v>
   <v>       0.50042049      -0.49957830       0.00000000 </v>
   <v>       0.50063074      -0.49936745       0.00000000 </v>
   <v>       0.50084098      -0.49915660       0.00000000 </v>
   <v>       0.50105123      -0.49894575       0.00000000 </v>
   <v>       0.50126148      -0.49873490       0.00000000 </v>
   <v>       0.50147172      -0.49852405       0.00000000 </v>
   <v>       0.50168197      -0.49831320       0.00000000 </v>
   <v>       0.50189221      -0.49810235       0.00000000 </v>
   <v>       0.50210246      -0.49789150       0.00000000 </v>
   <v>       0.50231271      -0.49768065       0.00000000 </v>
   <v>       0.50252295      -0.49746980       0.00000000 </v>
   <v>       0.50273320      -0.49725895       0.00000000 </v>
   <v>       0.50294344      -0.49704810       0.00000000 </v>
   <v>       0.50315369      -0.49683725       0.00000000 </v>
   <v>       0.50336394      -0.49662640       0.00000000 </v>
   <v>       0.50357418      -0.49641555       0.00000000 </v>
   <v>       0.50378443      -0.49620470       0.00000000 </v>
   <v>       0.50399467      -0.49599385       0.00000000 </v>
   <v>       0.50399467      -0.49599385       0.00000000 </v>
   <v>       0.50378443      -0.46988891       0.00000000 </v>
   <v>       0.50357418      -0.44378397       0.00000000 </v>
   <v>       0.50336394      -0.41767903       0.00000000 </v>
   <v>       0.50315369      -0.39157409       0.00000000 </v>
   <v>       0.50294344      -0.36546915       0.00000000 </v>
   <v>       0.50273320      -0.33936421       0.00000000 </v>
   <v>       0.50252295      -0.31325927       0.00000000 </v>
   <v>       0.50231271      -0.28715433       0.00000000 </v>
   <v>       0.50210246      -0.26104939       0.00000000 </v>
   <v>       0.50189221      -0.23494445       0.00000000 </v>
   <v>       0.50168197      -0.20883951       0.00000000 </v>
   <v>       0.50147172      -0.18273457       0.00000000 </v>
   <v>       0.50126148      -0.15662964       0.00000000 </v>
   <v>       0.50105123      -0.13052470       0.00000000 </v>
   <v>       0.50084098      -0.10441976       0.00000000 </v>
   <v>       0.50063074      -0.07831482       0.00000000 </v>
   <v>       0.50042049      -0.05220988       0.00000000 </v>
   <v>       0.50021025      -0.02610494       0.00000000 </v>
   <v>       0.50000000       0.00000000       0.00000000 </v>
   <v>       0.50000000       0.00000000       0.00000000 </v>
   <v>       0.49978975       0.02610494       0.00000000 </v>
   <v>       0.49957951       0.05220988       0.00000000 </v>
   <v>       0.49936926       0.07831482       0.00000000 </v>
   <v>       0.49915902       0.10441976       0.00000000 </v>
   <v>       0.49894877       0.13052470       0.00000000 </v>
   <v>       0.49873852       0.15662964       0.00000000 </v>
   <v>       0.49852828       0.18273457       0.00000000 </v>
   <v>       0.49831803       0.20883951       0.00000000 </v>
   <v>       0.49810779       0.23494445       0.00000000 </v>
   <v>       0.49789754       0.26104939       0.00000000 </v>
   <v>       0.49768729       0.28715433       0.00000000 </v>
   <v>       0.49747705       0.31325927       0.00000000 </v>
   <v>       0.49726680       0.33936421       0.00000000 </v>
   <v>       0.49705656       0.36546915       0.00000000 </v>
   <v>       0.49684631       0.39157409       0.00000000 </v>
   <v>       0.49663606       0.41767903       0.00000000 </v>
   <v>       0.49642582       0.44378397       0.00000000 </v>
   <v>       0.49621557       0.46988891       0.00000000 </v>
   <v>       0.49600533       0.49599385       0.00000000 </v>
   <v>       0.49600533       0.49599385       0.00000000 </v>
   <v>       0.46989978       0.49620470       0.00000000 </v>
   <v>       0.44379424       0.49641555       0.00000000 </v>
   <v>       0.41768870       0.49662640       0.00000000 </v>
   <v>       0.39158315       0.49683725       0.00000000 </v>
   <v>       0.36547761       0.49704810       0.00000000 </v>
   <v>       0.33937207       0.49725895       0.00000000 </v>
   <v>       0.31326652       0.49746980       0.00000000 </v>
   <v>       0.28716098       0.49768065       0.00000000 </v>
   <v>       0.26105544       0.49789150       0.00000000 </v>
   <v>       0.23494989       0.49810235       0.00000000 </v>
   <v>       0.20884435       0.49831320       0.00000000 </v>
   <v>       0.18273880       0.49852405       0.00000000 </v>
   <v>       0.15663326       0.49873490       0.00000000 </v>
   <v>       0.13052772       0.49894575       0.00000000 </v>
   <v>       0.10442217       0.49915660       0.00000000 </v>
   <v>       0.07831663       0.49936745       0.00000000 </v>
   <v>       0.05221109       0.49957830       0.00000000 </v>
   <v>       0.02610554       0.49978915       0.00000000 </v>
   <v>       0.00000000       0.50000000       0.00000000 </v>
   <v>       0.00000000       0.50000000       0.00000000 </v>
   <v>       0.00000000       0.47368421       0.00000000 </v>
   <v>       0.00000000       0.44736842       0.00000000 </v>
   <v>       0.00000000       0.42105263       0.00000000 </v>
   <v>       0.00000000       0.39473684       0.00000000 </v>
   <v>       0.00000000       0.36842105       0.00000000 </v>
   <v>       0.00000000       0.34210526       0.00000000 </v>
   <v>       0.00000000       0.31578947       0.00000000 </v>
   <v>       0.00000000       0.28947368       0.00000000 </v>
   <v>       0.00000000       0.26315789       0.00000000 </v>
   <v>       0.00000000       0.23684211       0.00000000 </v>
   <v>       0.00000000       0.21052632       0.00000000 </v>
   <v>       0.00000000       0.18421053       0.00000000 </v>
   <v>       0.00000000       0.15789474       0.00000000 </v>
   <v>       0.00000000       0.13157895       0.00000000 </v>
   <v>       0.00000000       0.10526316       0.00000000 </v>
   <v>       0.00000000       0.07894737       0.00000000 </v>
   <v>       0.00000000       0.05263158       0.00000000 </v>
   <v>       0.00000000       0.02631579       0.00000000 </v>
   <v>       0.00000000       0.00000000       0.00000000 </v>
  </varray>
  <varray name="weights" >
   <v>       0.00833333 </v>
   <v>       0.00833333 </v>
   <v>       0.00833333 </v>
   <v>       0.00833333 </v>
   <v>       0.00833333 </v>
   <v>       0.00833333 </v>
   <v>       0.00833333 </v>
   <v>       0.00833333 </v>
   <v>       0.00833333 </v>
   <v>       0.00833333 </v>
   <v>       0.00833333 </v>
   <v>       0.00833333 </v>
   <v>       0.00833333 </v>
   <v>       0.00833333 </v>
   <v>       0.00833333 </v>
   <v>       0.00833333 </v>
   <v>       0.00833333 </v>
   <v>       0.00833333 </v>
   <v>       0.00833333 </v>
   <v>       0.00833333 </v>
   <v>       0.00833333 </v>
   <v>       0.00833333 </v>
   <v>       0.00833333 </v>
   <v>       0.00833333 </v>
   <v>       0.00833333 </v>
   <v>       0.00833333 </v>
   <v>       0.00833333 </v>
   <v>       0.00833333 </v>
   <v>       0.00833333 </v>
   <v>       0.00833333 </v>
   <v>       0.00833333 </v>
   <v>       0.00833333 </v>
   <v>       0.00833333 </v>
   <v>       0.00833333 </v>
   <v>       0.00833333 </v>
   <v>       0.00833333 </v>
   <v>       0.00833333 </v>
   <v>       0.00833333 </v>
   <v>       0.00833333 </v>
   <v>       0.00833333 </v>
   <v>       0.00833333 </v>
   <v>       0.00833333 </v>
   <v>       0.00833333 </v>
   <v>       0.00833333 </v>
   <v>       0.00833333 </v>
   <v>       0.00833333 </v>
   <v>       0.00833333 </v>
   <v>       0.00833333 </v>
   <v>       0.00833333 </v>
   <v>       0.00833333 </v>
   <v>       0.00833333 </v>
   <v>       0.00833333 </v>
   <v>       0.00833333 </v>
   <v>       0.00833333 </v>
   <v>       0.00833333 </v>
   <v>       0.00833333 </v>
   <v>       0.00833333 </v>
   <v>       0.00833333 </v>
   <v>       0.00833333 </v>
   <v>       0.00833333 </v>
   <v>       0.00833333 </v>
   <v>       0.00833333 </v>
   <v>       0.00833333 </v>
   <v>       0.00833333 </v>
   <v>       0.00833333 </v>
   <v>       0.00833333 </v>
   <v>       0.00833333 </v>
   <v>       0.00833333 </v>
   <v>       0.00833333 </v>
   <v>       0.00833333 </v>
   <v>       0.00833333 </v>
   <v>       0.00833333 </v>
   <v>       0.00833333 </v>
   <v>       0.00833333 </v>
   <v>       0.00833333 </v>
   <v>       0.00833333 </v>
   <v>       0.00833333 </v>
   <v>       0.00833333 </v>
   <v>       0.00833333 </v>
   <v>       0.00833333 </v>
   <v>       0.00833333 </v>
   <v>       0.00833333 </v>
   <v>       0.00833333 </v>
   <v>       0.00833333 </v>
   <v>       0.00833333 </v>
   <v>       0.00833333 </v>
   <v>       0.00833333 </v>
   <v>       0.00833333 </v>
   <v>       0.00833333 </v>
   <v>       0.00833333 </v>
   <v>       0.00833333 </v>
   <v>       0.00833333 </v>
   <v>       0.00833333 </v>
   <v>       0.00833333 </v>
   <v>       0.00833333 </v>
   <v>       0.00833333 </v>
   <v>       0.00833333 </v>
   <v>       0.00833333 </v>
   <v>       0.00833333 </v>
   <v>       0.00833333 </v>
   <v>       0.00833333 </v>
   <v>       0.00833333 </v>
   <v>       0.00833333 </v>
   <v>       0.00833333 </v>
   <v>       0.00833333 </v>
   <v>       0.00833333 </v>
   <v>       0.00833333 </v>
   <v>       0.00833333 </v>
   <v>       0.00833333 </v>
   <v>       0.00833333 </v>
   <v>       0.00833333 </v>
   <v>       0.00833333 </v>
   <v>       0.00833333 </v>
   <v>       0.00833333 </v>
   <v>       0.00833333 </v>
   <v>       0.00833333 </v>
   <v>       0.00833333 </v>
   <v>       0.00833333 </v>
   <v>       0.00833333 </v>
   <v>       0.00833333 </v>
  </varray>
 </kpoints>
 <parameters>
  <separator name="general" >
   <i type="string" name="SYSTEM">Simulation for cell shape cell volume r</i>
   <i type="logical" name="LCOMPAT"> F  </i>
  </separator>
  <separator name="electronic" >
   <i type="string" name="PREC">high</i>
   <i name="ENMAX">    500.00000000</i>
   <i name="ENAUG">    644.87300000</i>
   <i name="EDIFF">      0.00001000</i>
   <i type="int" name="IALGO">    38</i>
   <i type="int" name="IWAVPR">    10</i>
   <i type="int" name="NBANDS">   240</i>
   <i name="NELECT">    342.00000000</i>
   <i type="int" name="TURBO">     0</i>
   <i type="int" name="IRESTART">     0</i>
   <i type="int" name="NREBOOT">     0</i>
   <i type="int" name="NMIN">     0</i>
   <i name="EREF">      0.00000000</i>
   <separator name="electronic smearing" >
    <i type="int" name="ISMEAR">     0</i>
    <i name="SIGMA">      0.01000000</i>
    <i name="KSPACING">      0.50000000</i>
    <i type="logical" name="KGAMMA"> T  </i>
   </separator>
   <separator name="electronic projectors" >
    <i type="logical" name="LREAL"> T  </i>
    <v name="ROPT">     -0.00040000     -0.00040000     -0.00040000</v>
    <i type="int" name="LMAXPAW">  -100</i>
    <i type="int" name="LMAXMIX">     2</i>
    <i type="logical" name="NLSPLINE"> F  </i>
   </separator>
   <separator name="electronic startup" >
    <i type="int" name="ISTART">     1</i>
    <i type="int" name="ICHARG">    11</i>
    <i type="int" name="INIWAV">     1</i>
   </separator>
   <separator name="electronic spin" >
    <i type="int" name="ISPIN">     1</i>
    <i type="logical" name="LNONCOLLINEAR"> F  </i>
    <v name="MAGMOM">      1.00000000      1.00000000      1.00000000      1.00000000      1.00000000      1.00000000      1.00000000      1.00000000      1.00000000      1.00000000      1.00000000      1.00000000      1.00000000      1.00000000      1.00000000      1.00000000      1.00000000      1.00000000      1.00000000      1.00000000
      1.00000000      1.00000000      1.00000000      1.00000000      1.00000000      1.00000000      1.00000000      1.00000000      1.00000000      1.00000000      1.00000000      1.00000000      1.00000000      1.00000000      1.00000000      1.00000000      1.00000000      1.00000000      1.00000000      1.00000000
      1.00000000      1.00000000      1.00000000      1.00000000      1.00000000      1.00000000      1.00000000      1.00000000      1.00000000      1.00000000      1.00000000      1.00000000      1.00000000      1.00000000      1.00000000      1.00000000      1.00000000      1.00000000      1.00000000      1.00000000
      1.00000000      1.00000000      1.00000000      1.00000000      1.00000000      1.00000000      1.00000000      1.00000000      1.00000000      1.00000000      1.00000000      1.00000000      1.00000000      1.00000000      1.00000000      1.00000000      1.00000000      1.00000000      1.00000000      1.00000000
      1.00000000      1.00000000      1.00000000      1.00000000      1.00000000      1.00000000      1.00000000      1.00000000      1.00000000      1.00000000      1.00000000      1.00000000      1.00000000      1.00000000      1.00000000      1.00000000      1.00000000      1.00000000      1.00000000      1.00000000
      1.00000000      1.00000000      1.00000000      1.00000000      1.00000000      1.00000000      1.00000000      1.00000000      1.00000000      1.00000000      1.00000000      1.00000000</v>
    <i name="NUPDOWN">     -1.00000000</i>
    <i type="logical" name="LSORBIT"> F  </i>
    <v name="SAXIS">      0.00000000      0.00000000      1.00000000</v>
    <i type="logical" name="LSPIRAL"> F  </i>
    <v name="QSPIRAL">      0.00000000      0.00000000      0.00000000</v>
    <i type="logical" name="LZEROZ"> F  </i>
   </separator>
   <separator name="electronic exchange-correlation" >
    <i type="logical" name="LASPH"> F  </i>
    <i type="logical" name="LMETAGGA"> F  </i>
   </separator>
   <separator name="electronic convergence" >
    <i type="int" name="NELM">   200</i>
    <i type="int" name="NELMDL">     0</i>
    <i type="int" name="NELMIN">     2</i>
    <i name="ENINI">    500.00000000</i>
    <separator name="electronic convergence detail" >
     <i type="logical" name="LDIAG"> T  </i>
     <i type="logical" name="LSUBROT"> F  </i>
     <i name="WEIMIN">      0.00000000</i>
     <i name="EBREAK">      0.00000001</i>
     <i name="DEPER">      0.30000000</i>
     <i type="int" name="NRMM">     4</i>
     <i name="TIME">      0.40000000</i>
    </separator>
   </separator>
   <separator name="electronic mixer" >
    <i name="AMIX">      0.40000000</i>
    <i name="BMIX">      1.00000000</i>
    <i name="AMIN">      0.10000000</i>
    <i name="AMIX_MAG">      1.60000000</i>
    <i name="BMIX_MAG">      1.00000000</i>
    <separator name="electronic mixer details" >
     <i type="int" name="IMIX">     4</i>
     <i type="logical" name="MIXFIRST"> F  </i>
     <i type="int" name="MAXMIX">   -45</i>
     <i name="WC">    100.00000000</i>
     <i type="int" name="INIMIX">     1</i>
     <i type="int" name="MIXPRE">     1</i>
     <i type="int" name="MREMOVE">     5</i>
    </separator>
   </separator>
   <separator name="electronic dipolcorrection" >
    <i type="logical" name="LDIPOL"> F  </i>
    <i type="logical" name="LMONO"> F  </i>
    <i type="int" name="IDIPOL">     0</i>
    <i name="EPSILON">      1.00000000</i>
    <v name="DIPOL">   -100.00000000   -100.00000000   -100.00000000</v>
    <i name="EFIELD">      0.00000000</i>
   </separator>
  </separator>
  <separator name="grids" >
   <i type="int" name="NGX">   192</i>
   <i type="int" name="NGY">   192</i>
   <i type="int" name="NGZ">   150</i>
   <i type="int" name="NGXF">   280</i>
   <i type="int" name="NGYF">   280</i>
   <i type="int" name="NGZF">   224</i>
   <i type="logical" name="ADDGRID"> F  </i>
  </separator>
  <separator name="ionic" >
   <i type="int" name="NSW">     0</i>
   <i type="int" name="IBRION">    -1</i>
   <i type="int" name="MDALGO">     0</i>
   <i type="int" name="ISIF">     2</i>
   <i name="PSTRESS">      0.00000000</i>
   <i name="EDIFFG">     -0.01000000</i>
   <i type="int" name="NFREE">     0</i>
   <i name="POTIM">      0.30000000</i>
   <i name="SMASS">     -3.00000000</i>
   <i name="SCALEE">      1.00000000</i>
  </separator>
  <separator name="ionic md" >
   <i name="TEBEG">      0.00010000</i>
   <i name="TEEND">      0.00010000</i>
   <i type="int" name="NBLOCK">     1</i>
   <i type="int" name="KBLOCK">     1</i>
   <i type="int" name="NPACO">   256</i>
   <i name="APACO">     16.00000000</i>
  </separator>
  <separator name="symmetry" >
   <i type="int" name="ISYM">     2</i>
   <i name="SYMPREC">      0.00001000</i>
  </separator>
  <separator name="dos" >
   <i type="int" name="LORBIT">     0</i>
   <v name="RWIGS">     -1.00000000     -1.00000000     -1.00000000</v>
   <i type="int" name="NEDOS">   301</i>
   <i name="EMIN">     10.00000000</i>
   <i name="EMAX">    -10.00000000</i>
   <i name="EFERMI">      0.00000000</i>
  </separator>
  <separator name="writing" >
   <i type="int" name="NWRITE">     0</i>
   <i type="logical" name="LWAVE"> F  </i>
   <i type="logical" name="LDOWNSAMPLE"> F  </i>
   <i type="logical" name="LCHARG"> F  </i>
   <i type="logical" name="LPARD"> F  </i>
   <i type="logical" name="LVTOT"> F  </i>
   <i type="logical" name="LVHAR"> F  </i>
   <i type="logical" name="LELF"> F  </i>
   <i type="logical" name="LOPTICS"> F  </i>
   <v name="STM">      0.00000000      0.00000000      0.00000000      0.00000000      0.00000000      0.00000000      0.00000000</v>
  </separator>
  <separator name="performance" >
   <i type="int" name="NPAR">    16</i>
   <i type="int" name="NSIM">     4</i>
   <i type="int" name="NBLK">    -1</i>
   <i type="logical" name="LPLANE"> T  </i>
   <i type="logical" name="LSCALAPACK"> T  </i>
   <i type="logical" name="LSCAAWARE"> F  </i>
   <i type="logical" name="LSCALU"> F  </i>
   <i type="logical" name="LASYNC"> F  </i>
   <i type="logical" name="LORBITALREAL"> F  </i>
  </separator>
  <separator name="miscellaneous" >
   <i type="int" name="IDIOT">     3</i>
   <i type="int" name="ISPECIAL">     0</i>
   <i type="logical" name="LMUSIC"> F  </i>
   <v name="POMASS">      1.00000000     12.01100000     14.00100000</v>
   <v name="DARWINR">      0.00000000      0.00000000      0.00000000</v>
   <v name="DARWINV">      1.00000000      1.00000000      1.00000000</v>
   <i type="logical" name="LCORR"> T  </i>
  </separator>
  <i type="logical" name="GGA_COMPAT"> T  </i>
  <i type="logical" name="LBERRY"> F  </i>
  <i type="int" name="ICORELEVEL">     0</i>
  <i type="logical" name="LDAU"> F  </i>
  <i type="int" name="I_CONSTRAINED_M">     0</i>
  <separator name="electronic exchange-correlation" >
   <i type="string" name="GGA">PE</i>
   <i type="int" name="VOSKOWN">     0</i>
   <i type="logical" name="LHFCALC"> F  </i>
   <i type="string" name="PRECFOCK"></i>
   <i type="logical" name="LSYMGRAD"> F  </i>
   <i type="logical" name="LHFONE"> F  </i>
   <i type="logical" name="LRHFCALC"> F  </i>
   <i type="logical" name="LTHOMAS"> F  </i>
   <i type="logical" name="LMODELHF"> F  </i>
   <i name="ENCUT4O">     -1.00000000</i>
   <i type="int" name="EXXOEP">     0</i>
   <i type="int" name="FOURORBIT">     0</i>
   <i name="AEXX">      0.00000000</i>
   <i name="HFALPHA">      0.00000000</i>
   <i name="MCALPHA">      0.00000000</i>
   <i name="ALDAX">      1.00000000</i>
   <i name="AGGAX">      1.00000000</i>
   <i name="ALDAC">      1.00000000</i>
   <i name="AGGAC">      1.00000000</i>
   <i type="int" name="NKREDX">     1</i>
   <i type="int" name="NKREDY">     1</i>
   <i type="int" name="NKREDZ">     1</i>
   <i type="logical" name="SHIFTRED"> F  </i>
   <i type="logical" name="ODDONLY"> F  </i>
   <i type="logical" name="EVENONLY"> F  </i>
   <i type="int" name="LMAXFOCK">     0</i>
   <i type="int" name="NMAXFOCKAE">     0</i>
   <i type="logical" name="LFOCKAEDFT"> F  </i>
   <i name="HFSCREEN">      0.00000000</i>
   <i name="HFSCREENC">      0.00000000</i>
   <i type="int" name="NBANDSGWLOW">     0</i>
  </separator>
  <separator name="vdW DFT" >
   <i type="logical" name="LUSE_VDW"> F  </i>
   <i name="Zab_VDW">     -0.84910000</i>
   <i name="PARAM1">      0.12340000</i>
   <i name="PARAM2">      1.00000000</i>
   <i name="PARAM3">      0.00000000</i>
  </separator>
  <separator name="model GW" >
   <i type="int" name="MODEL_GW">     0</i>
   <i name="MODEL_EPS0">     66.41985290</i>
   <i name="MODEL_ALPHA">      1.00000000</i>
  </separator>
  <separator name="linear response parameters" >
   <i type="logical" name="LEPSILON"> F  </i>
   <i type="logical" name="LRPA"> F  </i>
   <i type="logical" name="LNABLA"> F  </i>
   <i type="logical" name="LVEL"> F  </i>
   <i type="int" name="KINTER">     0</i>
   <i name="CSHIFT">      0.10000000</i>
   <i name="OMEGAMAX">     -1.00000000</i>
   <i name="DEG_THRESHOLD">      0.00200000</i>
   <i name="RTIME">     -0.10000000</i>
   <i name="WPLASMAI">      0.00000000</i>
   <v name="DFIELD">      0.00000000      0.00000000      0.00000000</v>
   <v name="WPLASMA">      0.00000000      0.00000000      0.00000000      0.00000000      0.00000000      0.00000000      0.00000000      0.00000000      0.00000000</v>
  </separator>
  <separator name="orbital magnetization" >
   <i type="logical" name="NUCIND"> F  </i>
   <v name="MAGPOS">      0.00000000      0.00000000      0.00000000</v>
   <i type="logical" name="LNICSALL"> T  </i>
   <i type="logical" name="ORBITALMAG"> F  </i>
   <i type="logical" name="LMAGBLOCH"> F  </i>
   <i type="logical" name="LCHIMAG"> F  </i>
   <i type="logical" name="LGAUGE"> T  </i>
   <i type="int" name="MAGATOM">     0</i>
   <v name="MAGDIPOL">      0.00000000      0.00000000      0.00000000</v>
   <v name="AVECCONST">      0.00000000      0.00000000      0.00000000</v>
  </separator>
  <separator name="response functions" >
   <i type="logical" name="LADDER"> F  </i>
   <i type="logical" name="LRPAFORCE"> F  </i>
   <i type="logical" name="LFXC"> F  </i>
   <i type="logical" name="LHARTREE"> T  </i>
   <i type="int" name="IBSE">     0</i>
   <v type="int" name="KPOINT">    -1     0     0     0</v>
   <i type="logical" name="LTCTE"> F  </i>
   <i type="logical" name="LTETE"> F  </i>
   <i type="logical" name="LTRIPLET"> F  </i>
   <i type="logical" name="LFXCEPS"> F  </i>
   <i type="logical" name="LFXHEG"> F  </i>
   <i type="int" name="NATURALO">     2</i>
   <i type="logical" name="L2ORDER"> F  </i>
   <i type="logical" name="LMP2LT"> F  </i>
   <i type="logical" name="LUSEW"> F  </i>
   <i name="ENCUTGW">     -2.00000000</i>
   <i name="ENCUTGWSOFT">     -2.00000000</i>
   <i name="ENCUTLF">     -1.00000000</i>
   <i type="int" name="LMAXMP2">    -1</i>
   <i name="SCISSOR">      0.00000000</i>
   <i type="int" name="NOMEGA">     0</i>
   <i type="int" name="NOMEGAR">     0</i>
   <i type="int" name="NBANDSGW">    -1</i>
   <i type="int" name="NBANDSO">    -1</i>
   <i type="int" name="NBANDSV">    -1</i>
   <i type="int" name="NELM">   200</i>
   <i type="int" name="NELMHF">     1</i>
   <i type="int" name="DIM">     3</i>
   <i type="int" name="ANTIRES">     0</i>
   <i name="OMEGAMAX">    -30.00000000</i>
   <i name="OMEGAMIN">    -30.00000000</i>
   <i name="OMEGATL">   -200.00000000</i>
   <i type="int" name="OMEGAGRID">   140</i>
   <i name="CSHIFT">     -0.10000000</i>
   <i type="logical" name="SELFENERGY"> F  </i>
   <i type="logical" name="LSPECTRAL"> F  </i>
   <i type="logical" name="LSPECTRALGW"> F  </i>
   <i type="logical" name="LSINGLES"> F  </i>
   <i type="logical" name="LFERMIGW"> F  </i>
   <i type="logical" name="ODDONLYGW"> F  </i>
   <i type="logical" name="EVENONLYGW"> F  </i>
   <i type="int" name="NKREDLFX">     1</i>
   <i type="int" name="NKREDLFY">     1</i>
   <i type="int" name="NKREDLFZ">     1</i>
   <i type="int" name="MAXMEM">  2800</i>
   <i type="int" name="TELESCOPE">     0</i>
   <i type="int" name="TAUPAR">     1</i>
   <i type="int" name="OMEGAPAR">    -1</i>
   <i name="LAMBDA">      1.00000000</i>
  </separator>
  <separator name="External order field" >
   <i name="OFIELD_KAPPA">      0.00000000</i>
   <v name="OFIELD_K">      0.00000000      0.00000000      0.00000000</v>
   <i name="OFIELD_Q6_NEAR">      0.00000000</i>
   <i name="OFIELD_Q6_FAR">      0.00000000</i>
   <i name="OFIELD_A">      0.00000000</i>
  </separator>
  <separator name="solvation model" >
   <i type="logical" name="LSOL"> F  </i>
  </separator>
 </parameters>
 <atominfo>
  <atoms>     112 </atoms>
  <types>       3 </types>
  <array name="atoms" >
   <dimension dim="1">ion</dimension>
   <field type="string">element</field>
   <field type="int">atomtype</field>
   <set>
    <rc><c>H </c><c>   1</c></rc>
    <rc><c>H </c><c>   1</c></rc>
    <rc><c>H </c><c>   1</c></rc>
    <rc><c>H </c><c>   1</c></rc>
    <rc><c>H </c><c>   1</c></rc>
    <rc><c>H </c><c>   1</c></rc>
    <rc><c>H </c><c>   1</c></rc>
    <rc><c>H </c><c>   1</c></rc>
    <rc><c>H </c><c>   1</c></rc>
    <rc><c>H </c><c>   1</c></rc>
    <rc><c>H </c><c>   1</c></rc>
    <rc><c>H </c><c>   1</c></rc>
    <rc><c>H </c><c>   1</c></rc>
    <rc><c>H </c><c>   1</c></rc>
    <rc><c>H </c><c>   1</c></rc>
    <rc><c>H </c><c>   1</c></rc>
    <rc><c>H </c><c>   1</c></rc>
    <rc><c>H </c><c>   1</c></rc>
    <rc><c>H </c><c>   1</c></rc>
    <rc><c>H </c><c>   1</c></rc>
    <rc><c>H </c><c>   1</c></rc>
    <rc><c>H </c><c>   1</c></rc>
    <rc><c>H </c><c>   1</c></rc>
    <rc><c>H </c><c>   1</c></rc>
    <rc><c>H </c><c>   1</c></rc>
    <rc><c>H </c><c>   1</c></rc>
    <rc><c>H </c><c>   1</c></rc>
    <rc><c>H </c><c>   1</c></rc>
    <rc><c>H </c><c>   1</c></rc>
    <rc><c>H </c><c>   1</c></rc>
    <rc><c>H </c><c>   1</c></rc>
    <rc><c>H </c><c>   1</c></rc>
    <rc><c>H </c><c>   1</c></rc>
    <rc><c>H </c><c>   1</c></rc>
    <rc><c>H </c><c>   1</c></rc>
    <rc><c>H </c><c>   1</c></rc>
    <rc><c>H </c><c>   1</c></rc>
    <rc><c>H </c><c>   1</c></rc>
    <rc><c>H </c><c>   1</c></rc>
    <rc><c>H </c><c>   1</c></rc>
    <rc><c>C </c><c>   2</c></rc>
    <rc><c>C </c><c>   2</c></rc>
    <rc><c>C </c><c>   2</c></rc>
    <rc><c>C </c><c>   2</c></rc>
    <rc><c>C </c><c>   2</c></rc>
    <rc><c>C </c><c>   2</c></rc>
    <rc><c>C </c><c>   2</c></rc>
    <rc><c>C </c><c>   2</c></rc>
    <rc><c>C </c><c>   2</c></rc>
    <rc><c>C </c><c>   2</c></rc>
    <rc><c>C </c><c>   2</c></rc>
    <rc><c>C </c><c>   2</c></rc>
    <rc><c>C </c><c>   2</c></rc>
    <rc><c>C </c><c>   2</c></rc>
    <rc><c>C </c><c>   2</c></rc>
    <rc><c>C </c><c>   2</c></rc>
    <rc><c>C </c><c>   2</c></rc>
    <rc><c>C </c><c>   2</c></rc>
    <rc><c>C </c><c>   2</c></rc>
    <rc><c>C </c><c>   2</c></rc>
    <rc><c>C </c><c>   2</c></rc>
    <rc><c>C </c><c>   2</c></rc>
    <rc><c>C </c><c>   2</c></rc>
    <rc><c>C </c><c>   2</c></rc>
    <rc><c>C </c><c>   2</c></rc>
    <rc><c>C </c><c>   2</c></rc>
    <rc><c>C </c><c>   2</c></rc>
    <rc><c>C </c><c>   2</c></rc>
    <rc><c>C </c><c>   2</c></rc>
    <rc><c>C </c><c>   2</c></rc>
    <rc><c>C </c><c>   2</c></rc>
    <rc><c>C </c><c>   2</c></rc>
    <rc><c>C </c><c>   2</c></rc>
    <rc><c>C </c><c>   2</c></rc>
    <rc><c>C </c><c>   2</c></rc>
    <rc><c>C </c><c>   2</c></rc>
    <rc><c>C </c><c>   2</c></rc>
    <rc><c>C </c><c>   2</c></rc>
    <rc><c>C </c><c>   2</c></rc>
    <rc><c>C </c><c>   2</c></rc>
    <rc><c>C </c><c>   2</c></rc>
    <rc><c>C </c><c>   2</c></rc>
    <rc><c>C </c><c>   2</c></rc>
    <rc><c>C </c><c>   2</c></rc>
    <rc><c>C </c><c>   2</c></rc>
    <rc><c>C </c><c>   2</c></rc>
    <rc><c>C </c><c>   2</c></rc>
    <rc><c>C </c><c>   2</c></rc>
    <rc><c>C </c><c>   2</c></rc>
    <rc><c>C </c><c>   2</c></rc>
    <rc><c>C </c><c>   2</c></rc>
    <rc><c>C </c><c>   2</c></rc>
    <rc><c>C </c><c>   2</c></rc>
    <rc><c>C </c><c>   2</c></rc>
    <rc><c>C </c><c>   2</c></rc>
    <rc><c>C </c><c>   2</c></rc>
    <rc><c>C </c><c>   2</c></rc>
    <rc><c>C </c><c>   2</c></rc>
    <rc><c>N </c><c>   3</c></rc>
    <rc><c>N </c><c>   3</c></rc>
    <rc><c>N </c><c>   3</c></rc>
    <rc><c>N </c><c>   3</c></rc>
    <rc><c>N </c><c>   3</c></rc>
    <rc><c>N </c><c>   3</c></rc>
    <rc><c>N </c><c>   3</c></rc>
    <rc><c>N </c><c>   3</c></rc>
    <rc><c>N </c><c>   3</c></rc>
    <rc><c>N </c><c>   3</c></rc>
    <rc><c>N </c><c>   3</c></rc>
    <rc><c>N </c><c>   3</c></rc>
    <rc><c>N </c><c>   3</c></rc>
    <rc><c>N </c><c>   3</c></rc>
   </set>
  </array>
  <array name="atomtypes" >
   <dimension dim="1">type</dimension>
   <field type="int">atomspertype</field>
   <field type="string">element</field>
   <field>mass</field>
   <field>valence</field>
   <field type="string">pseudopotential</field>
   <set>
    <rc><c>  40</c><c>H </c><c>      1.00000000</c><c>      1.00000000</c><c>  PAW_PBE H 15Jun2001                   </c></rc>
    <rc><c>  58</c><c>C </c><c>     12.01100000</c><c>      4.00000000</c><c>  PAW_PBE C 08Apr2002                   </c></rc>
    <rc><c>  14</c><c>N </c><c>     14.00100000</c><c>      5.00000000</c><c>  PAW_PBE N 08Apr2002                   </c></rc>
   </set>
  </array>
 </atominfo>
 <structure name="initialpos" >
  <crystal>
   <varray name="basis" >
    <v>      24.88068610      -0.09201893       0.00000000 </v>
    <v>      -0.10881022      24.91605888       0.00000000 </v>
    <v>       0.00000000       0.00000000      20.00000000 </v>
   </varray>
   <i name="volume">  12398.37254072 </i>
   <varray name="rec_basis" >
    <v>       0.04019247       0.00017552       0.00000000 </v>
    <v>       0.00014844       0.04013541       0.00000000 </v>
    <v>       0.00000000       0.00000000       0.05000000 </v>
   </varray>
  </crystal>
  <varray name="positions" >
   <v>       0.29292406       0.90519781       0.40116667 </v>
   <v>       0.19476934       0.92291131       0.40214876 </v>
   <v>       0.99526468       0.78836076       0.41170886 </v>
   <v>       0.97482537       0.69066358       0.41504920 </v>
   <v>       0.79087253       0.00744814       0.40874466 </v>
   <v>       0.69335206       0.02804723       0.41018375 </v>
   <v>       0.07451722       0.19635016       0.40000166 </v>
   <v>       0.09195733       0.29465375       0.39874321 </v>
   <v>       0.62025913       0.08364025       0.46078709 </v>
   <v>       0.09836119       0.37908375       0.45946743 </v>
   <v>       0.37780448       0.90117764       0.46105088 </v>
   <v>       0.91584362       0.61811970       0.46606793 </v>
   <v>       0.45712595       0.06342086       0.42639435 </v>
   <v>       0.38021861       0.00367741       0.43680748 </v>
   <v>       0.93463499       0.45578275       0.43073877 </v>
   <v>       0.99510812       0.37989311       0.43806105 </v>
   <v>       0.30859607       0.98197453       0.59305523 </v>
   <v>       0.21033609       0.99852730       0.59462537 </v>
   <v>       0.20169055       0.07101280       0.49244492 </v>
   <v>       0.14207958       0.16046168       0.49565297 </v>
   <v>       0.03688033       0.02541267       0.50079151 </v>
   <v>       0.96440107       0.97501110       0.50531087 </v>
   <v>       0.15993477       0.86100205       0.51203684 </v>
   <v>       0.07034408       0.80019615       0.51662990 </v>
   <v>       0.92661258       0.80657292       0.60776988 </v>
   <v>       0.90509988       0.70911789       0.61064285 </v>
   <v>       0.85915033       0.83993865       0.50818337 </v>
   <v>       0.79947156       0.92939258       0.51062031 </v>
   <v>       0.93086749       0.20006736       0.49054698 </v>
   <v>       0.84134496       0.13910515       0.49491759 </v>
   <v>       0.80734696       0.07310035       0.60668285 </v>
   <v>       0.70996088       0.09453282       0.60787730 </v>
   <v>       0.02050959       0.30832324       0.59395816 </v>
   <v>       0.00427865       0.20985547       0.59577668 </v>
   <v>       0.62706419       0.10850214       0.54332221 </v>
   <v>       0.07813084       0.38334365       0.54410126 </v>
   <v>       0.38246032       0.92273717       0.54514975 </v>
   <v>       0.89279657       0.62519560       0.54932175 </v>
   <v>       0.62405977       0.00368514       0.57017615 </v>
   <v>       0.99823748       0.62306445       0.57271737 </v>
   <v>       0.07254794       0.27617554       0.44211742 </v>
   <v>       0.06307539       0.22083684       0.44284899 </v>
   <v>       0.71829959       0.03789371       0.45347630 </v>
   <v>       0.77294375       0.02604850       0.45271136 </v>
   <v>       0.97586633       0.77083183       0.45557783 </v>
   <v>       0.96413183       0.71607624       0.45743113 </v>
   <v>       0.21973666       0.93577132       0.44412088 </v>
   <v>       0.27496598       0.92605903       0.44361242 </v>
   <v>       0.47706500       0.03685844       0.46216156 </v>
   <v>       0.44870276       0.99302911       0.49133451 </v>
   <v>       0.96218398       0.47601302       0.46546836 </v>
   <v>       0.00681282       0.44831117       0.49270277 </v>
   <v>       0.15825481       0.07352600       0.49477360 </v>
   <v>       0.12778738       0.11924207       0.49602412 </v>
   <v>       0.07226240       0.10341832       0.49805837 </v>
   <v>       0.12250981       0.02807563       0.49737671 </v>
   <v>       0.13698759       0.97360294       0.49856211 </v>
   <v>       0.10088627       0.92956816       0.50103392 </v>
   <v>       0.02818113       0.88021878       0.50478503 </v>
   <v>       0.07325371       0.84339026       0.51030507 </v>
   <v>       0.11858062       0.87415200       0.50798905 </v>
   <v>       0.97393108       0.86305011       0.50694904 </v>
   <v>       0.92902789       0.89699455       0.50725398 </v>
   <v>       0.87874884       0.97223833       0.50747603 </v>
   <v>       0.84294062       0.92683935       0.50908965 </v>
   <v>       0.87344595       0.88115141       0.50823203 </v>
   <v>       0.86439484       0.02666082       0.50690371 </v>
   <v>       0.90053803       0.07061241       0.50486346 </v>
   <v>       0.97315858       0.12001479       0.50144502 </v>
   <v>       0.92803189       0.15683213       0.49639551 </v>
   <v>       0.88274405       0.12601597       0.49857209 </v>
   <v>       0.02735884       0.13732240       0.49924933 </v>
   <v>       0.03820679       0.19621561       0.49796590 </v>
   <v>       0.02321550       0.22859320       0.55236737 </v>
   <v>       0.03250522       0.28377152       0.55134172 </v>
   <v>       0.05733638       0.30833589       0.49618832 </v>
   <v>       0.80574111       0.03857390       0.50781326 </v>
   <v>       0.78228729       0.06326625       0.56356454 </v>
   <v>       0.72756920       0.07520085       0.56410061 </v>
   <v>       0.69493257       0.06269344       0.50913691 </v>
   <v>       0.96233686       0.80429515       0.50950753 </v>
   <v>       0.93835287       0.69316179       0.51298616 </v>
   <v>       0.92503274       0.72636345       0.56686834 </v>
   <v>       0.93691436       0.78119903       0.56527945 </v>
   <v>       0.19577381       0.96238200       0.49811902 </v>
   <v>       0.22860969       0.97860922       0.55179342 </v>
   <v>       0.28367104       0.96905302       0.55099933 </v>
   <v>       0.30764038       0.94273602       0.49680421 </v>
   <v>       0.63543645       0.07367867       0.51079328 </v>
   <v>       0.06576454       0.36832656       0.49476311 </v>
   <v>       0.36758082       0.93427486       0.49553150 </v>
   <v>       0.92702146       0.63364695       0.51558169 </v>
   <v>       0.55353848       0.01610461       0.52057031 </v>
   <v>       0.52482239       0.97259427       0.55042030 </v>
   <v>       0.55185872       0.94004162       0.59832125 </v>
   <v>       0.98450191       0.55252756       0.52342100 </v>
   <v>       0.02873588       0.52441561       0.55148203 </v>
   <v>       0.06259713       0.55156005       0.59831500 </v>
   <v>       0.52790132       0.04804201       0.47633379 </v>
   <v>       0.39523145       0.98400878       0.47698057 </v>
   <v>       0.95137355       0.52655203       0.48039797 </v>
   <v>       0.01571298       0.39519290       0.47751705 </v>
   <v>       0.07114790       0.04816562       0.49888827 </v>
   <v>       0.04587084       0.93233458       0.49963199 </v>
   <v>       0.93014538       0.95221966       0.50654567 </v>
   <v>       0.95555372       0.06785812       0.50608795 </v>
   <v>       0.47331318       0.96106659       0.53522944 </v>
   <v>       0.57804114       0.91660521       0.63707042 </v>
   <v>       0.60645787       0.02604943       0.53395756 </v>
   <v>       0.03979603       0.47319941       0.53562692 </v>
   <v>       0.08726035       0.57750421       0.63651372 </v>
   <v>       0.97496410       0.60518105       0.53732224 </v>
  </varray>
 </structure>
 <calculation>
  <scstep>
   <time name="dav">  471.40  475.60</time>
   <time name="total">  471.62  475.83</time>
   <energy>
    <i name="alphaZ">     43.86623202 </i>
    <i name="ewald">  42350.24621463 </i>
    <i name="hartreedc"> -52765.47898273 </i>
    <i name="XCdc">   1190.29359969 </i>
    <i name="pawpsdc">  31800.88026560 </i>
    <i name="pawaedc"> -31861.49715753 </i>
    <i name="eentropy">     -0.00000000 </i>
    <i name="bandstr">  -4276.74091242 </i>
    <i name="atom">  12737.55354457 </i>
    <i name="e_fr_energy">   -780.87719619 </i>
    <i name="e_wo_entrp">   -780.87719619 </i>
    <i name="e_0_energy">   -780.87719619 </i>
   </energy>
  </scstep>
  <scstep>
   <time name="dav">  549.27  554.22</time>
   <time name="total">  549.31  554.26</time>
   <energy>
    <i name="e_fr_energy">   -781.76742179 </i>
    <i name="e_wo_entrp">   -781.76742179 </i>
    <i name="e_0_energy">   -781.76742179 </i>
   </energy>
  </scstep>
  <scstep>
   <time name="dav">  604.16  609.79</time>
   <time name="total">  604.17  609.81</time>
   <energy>
    <i name="e_fr_energy">   -781.79396619 </i>
    <i name="e_wo_entrp">   -781.79396619 </i>
    <i name="e_0_energy">   -781.79396619 </i>
   </energy>
  </scstep>
  <scstep>
   <time name="dav">  549.59  554.61</time>
   <time name="total">  549.61  554.63</time>
   <energy>
    <i name="e_fr_energy">   -781.79448820 </i>
    <i name="e_wo_entrp">   -781.79448820 </i>
    <i name="e_0_energy">   -781.79448820 </i>
   </energy>
  </scstep>
  <scstep>
   <time name="dav">  545.16  550.58</time>
   <time name="total">  545.18  550.60</time>
   <energy>
    <i name="e_fr_energy">   -781.79451826 </i>
    <i name="e_wo_entrp">   -781.79451826 </i>
    <i name="e_0_energy">   -781.79451826 </i>
   </energy>
  </scstep>
  <scstep>
   <time name="dav">  450.45  454.67</time>
   <time name="total">  450.47  454.69</time>
   <energy>
    <i name="alphaZ">     43.86623202 </i>
    <i name="ewald">  42350.24621463 </i>
    <i name="hartreedc"> -52765.47898273 </i>
    <i name="XCdc">   1190.29359969 </i>
    <i name="pawpsdc">  31800.88026560 </i>
    <i name="pawaedc"> -31861.49715753 </i>
    <i name="eentropy">     -0.00000000 </i>
    <i name="bandstr">  -4277.65823540 </i>
    <i name="atom">  12737.55354457 </i>
    <i name="e_fr_energy">   -781.79451917 </i>
    <i name="e_wo_entrp">   -781.79451917 </i>
    <i name="e_0_energy">   -781.79451917 </i>
   </energy>
  </scstep>
  <structure>
   <crystal>
    <varray name="basis" >
     <v>      24.88068610      -0.09201893       0.00000000 </v>
     <v>      -0.10881022      24.91605888       0.00000000 </v>
     <v>       0.00000000       0.00000000      20.00000000 </v>
    </varray>
    <i name="volume">  12398.37254072 </i>
    <varray name="rec_basis" >
     <v>       0.04019247       0.00017552       0.00000000 </v>
     <v>       0.00014844       0.04013541       0.00000000 </v>
     <v>       0.00000000       0.00000000       0.05000000 </v>
    </varray>
   </crystal>
   <varray name="positions" >
    <v>       0.29292406       0.90519781       0.40116667 </v>
    <v>       0.19476934       0.92291131       0.40214876 </v>
    <v>       0.99526468       0.78836076       0.41170886 </v>
    <v>       0.97482537       0.69066358       0.41504920 </v>
    <v>       0.79087253       0.00744814       0.40874466 </v>
    <v>       0.69335206       0.02804723       0.41018375 </v>
    <v>       0.07451722       0.19635016       0.40000166 </v>
    <v>       0.09195733       0.29465375       0.39874321 </v>
    <v>       0.62025913       0.08364025       0.46078709 </v>
    <v>       0.09836119       0.37908375       0.45946743 </v>
    <v>       0.37780448       0.90117764       0.46105088 </v>
    <v>       0.91584362       0.61811970       0.46606793 </v>
    <v>       0.45712595       0.06342086       0.42639435 </v>
    <v>       0.38021861       0.00367741       0.43680748 </v>
    <v>       0.93463499       0.45578275       0.43073877 </v>
    <v>       0.99510812       0.37989311       0.43806105 </v>
    <v>       0.30859607       0.98197453       0.59305523 </v>
    <v>       0.21033609       0.99852730       0.59462537 </v>
    <v>       0.20169055       0.07101280       0.49244492 </v>
    <v>       0.14207958       0.16046168       0.49565297 </v>
    <v>       0.03688033       0.02541267       0.50079151 </v>
    <v>       0.96440107       0.97501110       0.50531087 </v>
    <v>       0.15993477       0.86100205       0.51203684 </v>
    <v>       0.07034408       0.80019615       0.51662990 </v>
    <v>       0.92661258       0.80657292       0.60776988 </v>
    <v>       0.90509988       0.70911789       0.61064285 </v>
    <v>       0.85915033       0.83993865       0.50818337 </v>
    <v>       0.79947156       0.92939258       0.51062031 </v>
    <v>       0.93086749       0.20006736       0.49054698 </v>
    <v>       0.84134496       0.13910515       0.49491759 </v>
    <v>       0.80734696       0.07310035       0.60668285 </v>
    <v>       0.70996088       0.09453282       0.60787730 </v>
    <v>       0.02050959       0.30832324       0.59395816 </v>
    <v>       0.00427865       0.20985547       0.59577668 </v>
    <v>       0.62706419       0.10850214       0.54332221 </v>
    <v>       0.07813084       0.38334365       0.54410126 </v>
    <v>       0.38246032       0.92273717       0.54514975 </v>
    <v>       0.89279657       0.62519560       0.54932175 </v>
    <v>       0.62405977       0.00368514       0.57017615 </v>
    <v>       0.99823748       0.62306445       0.57271737 </v>
    <v>       0.07254794       0.27617554       0.44211742 </v>
    <v>       0.06307539       0.22083684       0.44284899 </v>
    <v>       0.71829959       0.03789371       0.45347630 </v>
    <v>       0.77294375       0.02604850       0.45271136 </v>
    <v>       0.97586633       0.77083183       0.45557783 </v>
    <v>       0.96413183       0.71607624       0.45743113 </v>
    <v>       0.21973666       0.93577132       0.44412088 </v>
    <v>       0.27496598       0.92605903       0.44361242 </v>
    <v>       0.47706500       0.03685844       0.46216156 </v>
    <v>       0.44870276       0.99302911       0.49133451 </v>
    <v>       0.96218398       0.47601302       0.46546836 </v>
    <v>       0.00681282       0.44831117       0.49270277 </v>
    <v>       0.15825481       0.07352600       0.49477360 </v>
    <v>       0.12778738       0.11924207       0.49602412 </v>
    <v>       0.07226240       0.10341832       0.49805837 </v>
    <v>       0.12250981       0.02807563       0.49737671 </v>
    <v>       0.13698759       0.97360294       0.49856211 </v>
    <v>       0.10088627       0.92956816       0.50103392 </v>
    <v>       0.02818113       0.88021878       0.50478503 </v>
    <v>       0.07325371       0.84339026       0.51030507 </v>
    <v>       0.11858062       0.87415200       0.50798905 </v>
    <v>       0.97393108       0.86305011       0.50694904 </v>
    <v>       0.92902789       0.89699455       0.50725398 </v>
    <v>       0.87874884       0.97223833       0.50747603 </v>
    <v>       0.84294062       0.92683935       0.50908965 </v>
    <v>       0.87344595       0.88115141       0.50823203 </v>
    <v>       0.86439484       0.02666082       0.50690371 </v>
    <v>       0.90053803       0.07061241       0.50486346 </v>
    <v>       0.97315858       0.12001479       0.50144502 </v>
    <v>       0.92803189       0.15683213       0.49639551 </v>
    <v>       0.88274405       0.12601597       0.49857209 </v>
    <v>       0.02735884       0.13732240       0.49924933 </v>
    <v>       0.03820679       0.19621561       0.49796590 </v>
    <v>       0.02321550       0.22859320       0.55236737 </v>
    <v>       0.03250522       0.28377152       0.55134172 </v>
    <v>       0.05733638       0.30833589       0.49618832 </v>
    <v>       0.80574111       0.03857390       0.50781326 </v>
    <v>       0.78228729       0.06326625       0.56356454 </v>
    <v>       0.72756920       0.07520085       0.56410061 </v>
    <v>       0.69493257       0.06269344       0.50913691 </v>
    <v>       0.96233686       0.80429515       0.50950753 </v>
    <v>       0.93835287       0.69316179       0.51298616 </v>
    <v>       0.92503274       0.72636345       0.56686834 </v>
    <v>       0.93691436       0.78119903       0.56527945 </v>
    <v>       0.19577381       0.96238200       0.49811902 </v>
    <v>       0.22860969       0.97860922       0.55179342 </v>
    <v>       0.28367104       0.96905302       0.55099933 </v>
    <v>       0.30764038       0.94273602       0.49680421 </v>
    <v>       0.63543645       0.07367867       0.51079328 </v>
    <v>       0.06576454       0.36832656       0.49476311 </v>
    <v>       0.36758082       0.93427486       0.49553150 </v>
    <v>       0.92702146       0.63364695       0.51558169 </v>
    <v>       0.55353848       0.01610461       0.52057031 </v>
    <v>       0.52482239       0.97259427       0.55042030 </v>
    <v>       0.55185872       0.94004162       0.59832125 </v>
    <v>       0.98450191       0.55252756       0.52342100 </v>
    <v>       0.02873588       0.52441561       0.55148203 </v>
    <v>       0.06259713       0.55156005       0.59831500 </v>
    <v>       0.52790132       0.04804201       0.47633379 </v>
    <v>       0.39523145       0.98400878       0.47698057 </v>
    <v>       0.95137355       0.52655203       0.48039797 </v>
    <v>       0.01571298       0.39519290       0.47751705 </v>
    <v>       0.07114790       0.04816562       0.49888827 </v>
    <v>       0.04587084       0.93233458       0.49963199 </v>
    <v>       0.93014538       0.95221966       0.50654567 </v>
    <v>       0.95555372       0.06785812       0.50608795 </v>
    <v>       0.47331318       0.96106659       0.53522944 </v>
    <v>       0.57804114       0.91660521       0.63707042 </v>
    <v>       0.60645787       0.02604943       0.53395756 </v>
    <v>       0.03979603       0.47319941       0.53562692 </v>
    <v>       0.08726035       0.57750421       0.63651372 </v>
    <v>       0.97496410       0.60518105       0.53732224 </v>
   </varray>
  </structure>
  <varray name="forces" >
   <v>      -0.00131374       0.00055177       0.00122379 </v>
   <v>      -0.00147241      -0.00061267      -0.00207471 </v>
   <v>       0.00153581       0.00110244      -0.00142451 </v>
   <v>      -0.00002212       0.00062330       0.00113200 </v>
   <v>       0.00040505      -0.00315479      -0.00116802 </v>
   <v>      -0.00055840      -0.00206614      -0.00037129 </v>
   <v>       0.00083248       0.00011758      -0.00122002 </v>
   <v>       0.00033108      -0.00064975       0.00014546 </v>
   <v>      -0.00123075      -0.00040092       0.00012367 </v>
   <v>      -0.00192267      -0.00125670      -0.00035324 </v>
   <v>      -0.00065656      -0.00139036      -0.00321028 </v>
   <v>      -0.00080881      -0.00139122      -0.00276136 </v>
   <v>       0.00041549      -0.00286782       0.00481133 </v>
   <v>       0.00175981       0.00046654       0.00014466 </v>
   <v>      -0.00020724       0.00022498       0.00264797 </v>
   <v>      -0.00131826      -0.00082056       0.00239088 </v>
   <v>       0.00035461       0.00012521       0.00104960 </v>
   <v>      -0.00063932       0.00098822       0.00151990 </v>
   <v>       0.00100045       0.00017370       0.00052529 </v>
   <v>      -0.00101842       0.00087794       0.00056304 </v>
   <v>      -0.00168058      -0.00105136      -0.00086521 </v>
   <v>       0.00095158       0.00072388       0.00018745 </v>
   <v>       0.00044042      -0.00133523       0.00117693 </v>
   <v>      -0.00061836      -0.00259250       0.00159369 </v>
   <v>      -0.00212001       0.00112587       0.00112816 </v>
   <v>      -0.00166221       0.00127076       0.00029250 </v>
   <v>      -0.00144598      -0.00128557       0.00060776 </v>
   <v>      -0.00086746       0.00033315       0.00078590 </v>
   <v>      -0.00001333       0.00160497      -0.00059282 </v>
   <v>      -0.00092582       0.00079135      -0.00134090 </v>
   <v>       0.00150090       0.00328257       0.00056588 </v>
   <v>       0.00056948       0.00424354      -0.00034513 </v>
   <v>       0.00098202      -0.00000814      -0.00117194 </v>
   <v>       0.00035059      -0.00037887       0.00101622 </v>
   <v>      -0.00034902       0.00137365       0.00221232 </v>
   <v>       0.00125672      -0.00116070      -0.00327385 </v>
   <v>       0.00137860      -0.00143799       0.00323963 </v>
   <v>      -0.00145239      -0.00049383       0.00416008 </v>
   <v>       0.00006216      -0.00037040      -0.00057454 </v>
   <v>       0.00104458      -0.00104196      -0.00092518 </v>
   <v>       0.00035168       0.00200980      -0.00039676 </v>
   <v>      -0.00107096      -0.00087004      -0.00242493 </v>
   <v>      -0.00381375      -0.00020007       0.00221401 </v>
   <v>      -0.00171881       0.00017876       0.00052537 </v>
   <v>      -0.00030356      -0.00007627       0.00031122 </v>
   <v>      -0.00093108      -0.00140077       0.00184198 </v>
   <v>       0.00137222      -0.00070175      -0.00006595 </v>
   <v>       0.00199108       0.00017936       0.00008533 </v>
   <v>       0.00006618      -0.00151674      -0.00073513 </v>
   <v>       0.00017346      -0.00185870       0.00310612 </v>
   <v>       0.00458644       0.00050942       0.00131147 </v>
   <v>      -0.00429635      -0.00064703      -0.00211800 </v>
   <v>      -0.00062910      -0.00178563       0.00107999 </v>
   <v>       0.00336940      -0.00013002      -0.00033509 </v>
   <v>      -0.00423147      -0.00151001       0.00069419 </v>
   <v>      -0.00060724       0.00019227      -0.00081130 </v>
   <v>      -0.00441570      -0.00291011      -0.00089953 </v>
   <v>      -0.00201645       0.00203290       0.00048313 </v>
   <v>      -0.00298169       0.00349801       0.00105939 </v>
   <v>      -0.00555556      -0.00191810       0.00036424 </v>
   <v>       0.00480288       0.00428718       0.00040988 </v>
   <v>       0.00329720       0.00007537      -0.00179297 </v>
   <v>       0.00401012       0.00084278      -0.00069876 </v>
   <v>      -0.00176775       0.00102293       0.00114925 </v>
   <v>       0.00079615       0.00328716       0.00027953 </v>
   <v>      -0.00235787       0.00086841       0.00069894 </v>
   <v>       0.00563898       0.00366767      -0.00144942 </v>
   <v>       0.00182660      -0.00018738      -0.00105099 </v>
   <v>      -0.00048108      -0.00176581      -0.00059621 </v>
   <v>       0.00031811      -0.00162894      -0.00126548 </v>
   <v>       0.00316171      -0.00126175      -0.00142196 </v>
   <v>      -0.00269029      -0.00297568      -0.00112917 </v>
   <v>       0.00114804       0.00374720      -0.00080573 </v>
   <v>       0.00018823      -0.00065733       0.00002862 </v>
   <v>       0.00120205       0.00160426      -0.00045480 </v>
   <v>       0.00075901       0.00051422      -0.00050574 </v>
   <v>       0.00101295      -0.00162202       0.00019846 </v>
   <v>       0.00041974       0.00049507      -0.00019200 </v>
   <v>      -0.00289067       0.00147493       0.00013820 </v>
   <v>       0.00133319       0.00108971      -0.00025944 </v>
   <v>      -0.00330544      -0.00327480      -0.00083677 </v>
   <v>       0.00028424       0.00391940       0.00041051 </v>
   <v>      -0.00086922      -0.00228855      -0.00076271 </v>
   <v>       0.00061193       0.00094430       0.00098253 </v>
   <v>       0.00088149       0.00048015       0.00093838 </v>
   <v>      -0.00004228      -0.00137302       0.00045189 </v>
   <v>       0.00204375      -0.00129245      -0.00151276 </v>
   <v>      -0.00278749      -0.00046740      -0.00001532 </v>
   <v>       0.00309667       0.00048015      -0.00096744 </v>
   <v>      -0.00294978       0.00513349      -0.00221951 </v>
   <v>      -0.00232949      -0.00312718       0.00088838 </v>
   <v>       0.00226634       0.00391042      -0.00077031 </v>
   <v>      -0.00060309      -0.00199137       0.00111768 </v>
   <v>       0.00345172      -0.00780041      -0.00008414 </v>
   <v>      -0.00418455      -0.00437112      -0.00854449 </v>
   <v>       0.00500962       0.00240836       0.00012236 </v>
   <v>       0.00072992       0.00196442       0.00169044 </v>
   <v>      -0.00039638      -0.00257728       0.00261344 </v>
   <v>      -0.00080977      -0.00013821       0.00419069 </v>
   <v>       0.00401609       0.00265342       0.00317188 </v>
   <v>      -0.00118658       0.00049102      -0.00380076 </v>
   <v>       0.00243815       0.00079640      -0.00005362 </v>
   <v>       0.00398496       0.00128882       0.00006116 </v>
   <v>       0.00233235      -0.00002660       0.00117219 </v>
   <v>      -0.00516242       0.00051214       0.00082357 </v>
   <v>      -0.00147433      -0.00043546      -0.00112834 </v>
   <v>       0.00366142       0.00389994       0.00134915 </v>
   <v>      -0.00364808      -0.00349384       0.00130969 </v>
   <v>      -0.00157865      -0.00321331      -0.00005214 </v>
   <v>       0.00364228      -0.00157748      -0.00545866 </v>
   <v>       0.00313152       0.00634147      -0.00274595 </v>
   <v>      -0.00218891       0.00203740      -0.00048206 </v>
  </varray>
  <varray name="stress" >
   <v>      -0.02611697      -0.00465935       0.00616950 </v>
   <v>      -0.00465935      -0.01914851       0.01380258 </v>
   <v>       0.00616950       0.01380258      -0.18500003 </v>
  </varray>
  <energy>
   <i name="e_fr_energy">   -784.18177405 </i>
   <i name="e_wo_entrp">   -784.18177405 </i>
   <i name="e_0_energy">     -0.00000000 </i>
  </energy>
  <time name="totalsc"> 3628.41 3664.94</time>
  <eigenvalues>
   <array>
    <dimension dim="1">band</dimension>
    <dimension dim="2">kpoint</dimension>
    <dimension dim="3">spin</dimension>
    <field>eigene</field>
    <field>occ</field>
    <set>
     <set comment="spin 1">
      <set comment="kpoint 1">
       <r>  -24.8586    1.0000 </r>
       <r>  -24.8475    1.0000 </r>
       <r>  -24.3829    1.0000 </r>
       <r>  -24.3473    1.0000 </r>
       <r>  -23.8228    1.0000 </r>
       <r>  -23.8140    1.0000 </r>
       <r>  -23.1227    1.0000 </r>
       <r>  -23.0505    1.0000 </r>
       <r>  -22.7816    1.0000 </r>
       <r>  -22.7709    1.0000 </r>
       <r>  -22.3803    1.0000 </r>
       <r>  -22.3618    1.0000 </r>
       <r>  -21.8973    1.0000 </r>
       <r>  -21.8775    1.0000 </r>
       <r>  -21.3744    1.0000 </r>
       <r>  -21.3127    1.0000 </r>
       <r>  -21.3053    1.0000 </r>
       <r>  -21.2528    1.0000 </r>
       <r>  -20.2828    1.0000 </r>
       <r>  -20.0296    1.0000 </r>
       <r>  -19.9766    1.0000 </r>
       <r>  -19.6412    1.0000 </r>
       <r>  -19.2487    1.0000 </r>
       <r>  -19.2435    1.0000 </r>
       <r>  -19.1679    1.0000 </r>
       <r>  -19.1436    1.0000 </r>
       <r>  -18.7501    1.0000 </r>
       <r>  -18.4550    1.0000 </r>
       <r>  -18.3330    1.0000 </r>
       <r>  -18.3136    1.0000 </r>
       <r>  -18.2831    1.0000 </r>
       <r>  -18.2761    1.0000 </r>
       <r>  -18.2290    1.0000 </r>
       <r>  -18.1148    1.0000 </r>
       <r>  -18.0542    1.0000 </r>
       <r>  -18.0251    1.0000 </r>
       <r>  -17.5234    1.0000 </r>
       <r>  -17.2515    1.0000 </r>
       <r>  -17.1206    1.0000 </r>
       <r>  -16.9225    1.0000 </r>
       <r>  -16.6283    1.0000 </r>
       <r>  -16.6187    1.0000 </r>
       <r>  -16.4589    1.0000 </r>
       <r>  -15.8456    1.0000 </r>
       <r>  -15.8037    1.0000 </r>
       <r>  -15.3251    1.0000 </r>
       <r>  -15.1523    1.0000 </r>
       <r>  -14.9143    1.0000 </r>
       <r>  -14.8619    1.0000 </r>
       <r>  -14.8509    1.0000 </r>
       <r>  -14.8273    1.0000 </r>
       <r>  -14.5897    1.0000 </r>
       <r>  -14.5030    1.0000 </r>
       <r>  -14.4766    1.0000 </r>
       <r>  -14.4458    1.0000 </r>
       <r>  -14.3275    1.0000 </r>
       <r>  -14.2667    1.0000 </r>
       <r>  -14.2576    1.0000 </r>
       <r>  -14.0757    1.0000 </r>
       <r>  -13.9410    1.0000 </r>
       <r>  -13.8606    1.0000 </r>
       <r>  -13.7972    1.0000 </r>
       <r>  -13.6174    1.0000 </r>
       <r>  -13.6018    1.0000 </r>
       <r>  -13.4804    1.0000 </r>
       <r>  -13.1955    1.0000 </r>
       <r>  -13.0471    1.0000 </r>
       <r>  -12.8918    1.0000 </r>
       <r>  -12.8771    1.0000 </r>
       <r>  -12.5458    1.0000 </r>
       <r>  -12.3738    1.0000 </r>
       <r>  -12.3663    1.0000 </r>
       <r>  -12.0934    1.0000 </r>
       <r>  -12.0318    1.0000 </r>
       <r>  -12.0102    1.0000 </r>
       <r>  -11.9798    1.0000 </r>
       <r>  -11.8135    1.0000 </r>
       <r>  -11.6892    1.0000 </r>
       <r>  -11.5945    1.0000 </r>
       <r>  -11.5834    1.0000 </r>
       <r>  -11.5222    1.0000 </r>
       <r>  -11.4289    1.0000 </r>
       <r>  -11.2999    1.0000 </r>
       <r>  -11.2131    1.0000 </r>
       <r>  -10.9878    1.0000 </r>
       <r>  -10.9339    1.0000 </r>
       <r>  -10.9217    1.0000 </r>
       <r>  -10.8922    1.0000 </r>
       <r>  -10.8063    1.0000 </r>
       <r>  -10.7946    1.0000 </r>
       <r>  -10.7260    1.0000 </r>
       <r>  -10.7024    1.0000 </r>
       <r>  -10.6928    1.0000 </r>
       <r>  -10.5535    1.0000 </r>
       <r>  -10.5361    1.0000 </r>
       <r>  -10.4993    1.0000 </r>
       <r>  -10.4906    1.0000 </r>
       <r>  -10.3844    1.0000 </r>
       <r>  -10.2899    1.0000 </r>
       <r>  -10.2602    1.0000 </r>
       <r>  -10.0869    1.0000 </r>
       <r>  -10.0461    1.0000 </r>
       <r>  -10.0031    1.0000 </r>
       <r>   -9.9969    1.0000 </r>
       <r>   -9.9574    1.0000 </r>
       <r>   -9.9518    1.0000 </r>
       <r>   -9.8862    1.0000 </r>
       <r>   -9.8690    1.0000 </r>
       <r>   -9.8647    1.0000 </r>
       <r>   -9.6067    1.0000 </r>
       <r>   -9.5728    1.0000 </r>
       <r>   -9.5483    1.0000 </r>
       <r>   -9.4890    1.0000 </r>
       <r>   -9.4229    1.0000 </r>
       <r>   -9.3408    1.0000 </r>
       <r>   -9.1993    1.0000 </r>
       <r>   -9.1436    1.0000 </r>
       <r>   -9.1166    1.0000 </r>
       <r>   -8.9913    1.0000 </r>
       <r>   -8.9149    1.0000 </r>
       <r>   -8.8510    1.0000 </r>
       <r>   -8.7585    1.0000 </r>
       <r>   -8.6882    1.0000 </r>
       <r>   -8.6709    1.0000 </r>
       <r>   -8.6509    1.0000 </r>
       <r>   -8.6101    1.0000 </r>
       <r>   -8.5521    1.0000 </r>
       <r>   -8.4646    1.0000 </r>
       <r>   -8.3503    1.0000 </r>
       <r>   -8.2676    1.0000 </r>
       <r>   -8.2400    1.0000 </r>
       <r>   -8.2129    1.0000 </r>
       <r>   -8.1792    1.0000 </r>
       <r>   -8.1678    1.0000 </r>
       <r>   -8.1054    1.0000 </r>
       <r>   -8.0777    1.0000 </r>
       <r>   -8.0109    1.0000 </r>
       <r>   -7.9630    1.0000 </r>
       <r>   -7.9458    1.0000 </r>
       <r>   -7.9353    1.0000 </r>
       <r>   -7.9121    1.0000 </r>
       <r>   -7.8897    1.0000 </r>
       <r>   -7.5076    1.0000 </r>
       <r>   -7.1606    1.0000 </r>
       <r>   -7.1426    1.0000 </r>
       <r>   -6.9399    1.0000 </r>
       <r>   -6.9239    1.0000 </r>
       <r>   -6.8528    1.0000 </r>
       <r>   -6.6681    1.0000 </r>
       <r>   -6.4112    1.0000 </r>
       <r>   -6.3932    1.0000 </r>
       <r>   -6.2693    1.0000 </r>
       <r>   -6.2610    1.0000 </r>
       <r>   -6.2283    1.0000 </r>
       <r>   -6.2217    1.0000 </r>
       <r>   -6.1507    1.0000 </r>
       <r>   -6.1290    1.0000 </r>
       <r>   -6.1141    1.0000 </r>
       <r>   -6.0646    1.0000 </r>
       <r>   -6.0195    1.0000 </r>
       <r>   -5.9457    1.0000 </r>
       <r>   -5.9393    1.0000 </r>
       <r>   -5.9169    1.0000 </r>
       <r>   -5.7017    1.0000 </r>
       <r>   -5.6581    1.0000 </r>
       <r>   -5.5288    1.0000 </r>
       <r>   -5.4386    1.0000 </r>
       <r>   -4.8702    1.0000 </r>
       <r>   -4.4992    1.0000 </r>
       <r>   -4.4370    1.0000 </r>
       <r>   -4.4203    1.0000 </r>
       <r>   -2.7578    0.0000 </r>
       <r>   -2.7503    0.0000 </r>
       <r>   -2.4834    0.0000 </r>
       <r>   -2.4667    0.0000 </r>
       <r>   -1.5475    0.0000 </r>
       <r>   -1.2332    0.0000 </r>
       <r>   -1.2096    0.0000 </r>
       <r>   -1.2004    0.0000 </r>
       <r>   -1.1853    0.0000 </r>
       <r>   -1.1713    0.0000 </r>
       <r>   -1.1433    0.0000 </r>
       <r>   -1.0752    0.0000 </r>
       <r>   -1.0610    0.0000 </r>
       <r>   -0.7820    0.0000 </r>
       <r>   -0.7609    0.0000 </r>
       <r>   -0.4485    0.0000 </r>
       <r>   -0.3955    0.0000 </r>
       <r>   -0.2423    0.0000 </r>
       <r>   -0.2093    0.0000 </r>
       <r>   -0.0997    0.0000 </r>
       <r>   -0.0246    0.0000 </r>
       <r>    0.0261    0.0000 </r>
       <r>    0.1179    0.0000 </r>
       <r>    0.1545    0.0000 </r>
       <r>    0.1852    0.0000 </r>
       <r>    0.2338    0.0000 </r>
       <r>    0.2592    0.0000 </r>
       <r>    0.2682    0.0000 </r>
       <r>    0.3111    0.0000 </r>
       <r>    0.3592    0.0000 </r>
       <r>    0.4196    0.0000 </r>
       <r>    0.5018    0.0000 </r>
       <r>    0.5374    0.0000 </r>
       <r>    0.5559    0.0000 </r>
       <r>    0.5841    0.0000 </r>
       <r>    0.6069    0.0000 </r>
       <r>    0.6190    0.0000 </r>
       <r>    0.6551    0.0000 </r>
       <r>    0.6945    0.0000 </r>
       <r>    0.7071    0.0000 </r>
       <r>    0.7218    0.0000 </r>
       <r>    0.7581    0.0000 </r>
       <r>    0.7868    0.0000 </r>
       <r>    0.8177    0.0000 </r>
       <r>    0.8432    0.0000 </r>
       <r>    0.8545    0.0000 </r>
       <r>    0.8740    0.0000 </r>
       <r>    0.8885    0.0000 </r>
       <r>    0.9109    0.0000 </r>
       <r>    0.9537    0.0000 </r>
       <r>    0.9662    0.0000 </r>
       <r>    0.9995    0.0000 </r>
       <r>    1.0212    0.0000 </r>
       <r>    1.0335    0.0000 </r>
       <r>    1.0425    0.0000 </r>
       <r>    1.0547    0.0000 </r>
       <r>    1.0862    0.0000 </r>
       <r>    1.0991    0.0000 </r>
       <r>    1.1095    0.0000 </r>
       <r>    1.1279    0.0000 </r>
       <r>    1.1438    0.0000 </r>
       <r>    1.1780    0.0000 </r>
       <r>    1.1967    0.0000 </r>
       <r>    1.2381    0.0000 </r>
       <r>    1.2452    0.0000 </r>
       <r>    1.2644    0.0000 </r>
       <r>    1.3177    0.0000 </r>
       <r>    1.3488    0.0000 </r>
       <r>    1.3882    0.0000 </r>
      </set>
      <set comment="kpoint 2">
       <r>  -24.8586    1.0000 </r>
       <r>  -24.8474    1.0000 </r>
       <r>  -24.3829    1.0000 </r>
       <r>  -24.3473    1.0000 </r>
       <r>  -23.8228    1.0000 </r>
       <r>  -23.8140    1.0000 </r>
       <r>  -23.1227    1.0000 </r>
       <r>  -23.0505    1.0000 </r>
       <r>  -22.7816    1.0000 </r>
       <r>  -22.7709    1.0000 </r>
       <r>  -22.3803    1.0000 </r>
       <r>  -22.3618    1.0000 </r>
       <r>  -21.8973    1.0000 </r>
       <r>  -21.8775    1.0000 </r>
       <r>  -21.3745    1.0000 </r>
       <r>  -21.3126    1.0000 </r>
       <r>  -21.3052    1.0000 </r>
       <r>  -21.2529    1.0000 </r>
       <r>  -20.2832    1.0000 </r>
       <r>  -20.0293    1.0000 </r>
       <r>  -19.9759    1.0000 </r>
       <r>  -19.6423    1.0000 </r>
       <r>  -19.2490    1.0000 </r>
       <r>  -19.2433    1.0000 </r>
       <r>  -19.1679    1.0000 </r>
       <r>  -19.1434    1.0000 </r>
       <r>  -18.7484    1.0000 </r>
       <r>  -18.4560    1.0000 </r>
       <r>  -18.3330    1.0000 </r>
       <r>  -18.3136    1.0000 </r>
       <r>  -18.2831    1.0000 </r>
       <r>  -18.2763    1.0000 </r>
       <r>  -18.2290    1.0000 </r>
       <r>  -18.1213    1.0000 </r>
       <r>  -18.0498    1.0000 </r>
       <r>  -18.0227    1.0000 </r>
       <r>  -17.5231    1.0000 </r>
       <r>  -17.2515    1.0000 </r>
       <r>  -17.1210    1.0000 </r>
       <r>  -16.9226    1.0000 </r>
       <r>  -16.6455    1.0000 </r>
       <r>  -16.6018    1.0000 </r>
       <r>  -16.4579    1.0000 </r>
       <r>  -15.8463    1.0000 </r>
       <r>  -15.8045    1.0000 </r>
       <r>  -15.3241    1.0000 </r>
       <r>  -15.1524    1.0000 </r>
       <r>  -14.9143    1.0000 </r>
       <r>  -14.8618    1.0000 </r>
       <r>  -14.8508    1.0000 </r>
       <r>  -14.8273    1.0000 </r>
       <r>  -14.5916    1.0000 </r>
[...]
       <r>   -21.1634     0.0000    36.0000 </r>
       <r>   -21.0671     0.0000    36.0000 </r>
       <r>   -20.9708     0.0000    36.0000 </r>
       <r>   -20.8745     0.0000    36.0000 </r>
       <r>   -20.7782     0.0000    36.0000 </r>
       <r>   -20.6818     0.0000    36.0000 </r>
       <r>   -20.5855     0.0000    36.0000 </r>
       <r>   -20.4892     0.0000    36.0000 </r>
       <r>   -20.3929     0.0000    36.0000 </r>
       <r>   -20.2966    17.8889    37.7231 </r>
       <r>   -20.2002     0.0000    38.0000 </r>
       <r>   -20.1039     0.0000    38.0000 </r>
       <r>   -20.0076     6.3007    38.6069 </r>
       <r>   -19.9113    16.2637    40.4834 </r>
       <r>   -19.8150     9.3927    42.0052 </r>
       <r>   -19.7186    11.9482    43.5514 </r>
       <r>   -19.6223     3.8036    43.9997 </r>
       <r>   -19.5260     0.0000    44.0000 </r>
       <r>   -19.4297     0.0000    44.0000 </r>
       <r>   -19.3334     0.2479    44.0239 </r>
       <r>   -19.2370    41.2390    48.5558 </r>
       <r>   -19.1407     8.2740    50.0639 </r>
       <r>   -19.0444     5.5560    50.7018 </r>
       <r>   -18.9481     3.2897    51.1335 </r>
       <r>   -18.8518     8.3191    51.9849 </r>
       <r>   -18.7554     0.2346    52.0226 </r>
       <r>   -18.6591    15.8325    53.6618 </r>
       <r>   -18.5628     1.1849    54.0475 </r>
       <r>   -18.4665    17.5053    55.7695 </r>
       <r>   -18.3702     0.0197    56.0019 </r>
       <r>   -18.2738    80.6142    63.7666 </r>
       <r>   -18.1775    38.2103    68.5483 </r>
       <r>   -18.0812     5.8946    69.2678 </r>
       <r>   -17.9849     8.0607    70.1432 </r>
       <r>   -17.8886     1.5319    70.3309 </r>
       <r>   -17.7922     5.3614    70.8831 </r>
       <r>   -17.6959     4.4604    71.3632 </r>
       <r>   -17.5996     4.8344    72.0000 </r>
       <r>   -17.5033     5.5196    72.5316 </r>
       <r>   -17.4070     0.0000    74.0000 </r>
       <r>   -17.3106     0.0161    74.0015 </r>
       <r>   -17.2143    20.7517    76.0003 </r>
       <r>   -17.1180    20.2074    77.9467 </r>
       <r>   -17.0217     0.0000    78.0000 </r>
       <r>   -16.9254    18.6059    79.7921 </r>
       <r>   -16.8290     4.2632    80.4106 </r>
       <r>   -16.7327     8.7234    81.7239 </r>
       <r>   -16.6364     1.9995    81.9593 </r>
       <r>   -16.5401     7.2381    82.6974 </r>
       <r>   -16.4438    13.3442    84.1358 </r>
       <r>   -16.3474     1.7779    84.3713 </r>
       <r>   -16.2511     7.2818    85.1181 </r>
       <r>   -16.1548     7.9574    86.0000 </r>
       <r>   -16.0585     0.0000    86.0000 </r>
       <r>   -15.9622    10.5632    87.0174 </r>
       <r>   -15.8658    12.9314    88.7291 </r>
       <r>   -15.7695    10.2048    90.0000 </r>
       <r>   -15.6732     0.0000    90.0000 </r>
       <r>   -15.5769     0.0000    90.0000 </r>
       <r>   -15.4806     0.0000    90.0000 </r>
       <r>   -15.3843     0.0000    90.0000 </r>
       <r>   -15.2879     2.8868    90.2781 </r>
       <r>   -15.1916     8.7314    91.1911 </r>
       <r>   -15.0953    27.5026    94.0000 </r>
       <r>   -14.9990     0.0000    94.0000 </r>
       <r>   -14.9027    20.4570    95.9704 </r>
       <r>   -14.8063    61.8591   101.9583 </r>
       <r>   -14.7100    12.3964   103.1944 </r>
       <r>   -14.6137     3.9854   103.8345 </r>
       <r>   -14.5174     1.0719   104.0035 </r>
       <r>   -14.4211    35.2458   107.5290 </r>
       <r>   -14.3247    32.0093   111.4000 </r>
       <r>   -14.2284    41.5281   116.0000 </r>
       <r>   -14.1321     0.0000   116.0000 </r>
       <r>   -14.0358    20.7642   118.0000 </r>
       <r>   -13.9395    20.0354   119.9298 </r>
       <r>   -13.8431    20.7070   121.9945 </r>
       <r>   -13.7468    17.3129   123.6676 </r>
       <r>   -13.6505     5.5043   124.5302 </r>
       <r>   -13.5542    27.3355   128.0000 </r>
       <r>   -13.4579    20.5594   129.9803 </r>
       <r>   -13.3615     0.0000   130.0000 </r>
       <r>   -13.2652     0.0000   130.0000 </r>
       <r>   -13.1689    20.7616   131.9997 </r>
       <r>   -13.0726     0.0120   132.0012 </r>
       <r>   -12.9763    20.7522   134.0000 </r>
       <r>   -12.8799    23.5410   136.2675 </r>
       <r>   -12.7836     0.0000   138.0000 </r>
       <r>   -12.6873     0.0000   138.0000 </r>
       <r>   -12.5910     0.0317   138.0031 </r>
       <r>   -12.4947    20.7325   140.0000 </r>
       <r>   -12.3983     9.5722   140.9220 </r>
       <r>   -12.3020    22.8734   143.9370 </r>
       <r>   -12.2057     0.0000   144.0000 </r>
       <r>   -12.1094     0.0542   144.0052 </r>
       <r>   -12.0131    50.4287   148.9614 </r>
       <r>   -11.9167    20.7621   152.0000 </r>
       <r>   -11.8204     5.8181   152.5604 </r>
       <r>   -11.7241     6.0569   154.0004 </r>
       <r>   -11.6278    29.6360   156.8549 </r>
       <r>   -11.5315    32.3616   160.3009 </r>
       <r>   -11.4351    19.3737   163.8661 </r>
       <r>   -11.3388     8.7552   165.3771 </r>
       <r>   -11.2425     5.7089   166.0000 </r>
       <r>   -11.1462     3.9573   166.3812 </r>
       <r>   -11.0499    11.4910   167.6403 </r>
       <r>   -10.9535    33.6015   171.2365 </r>
       <r>   -10.8572    43.7647   176.0000 </r>
       <r>   -10.7609    41.4970   179.9970 </r>
       <r>   -10.6646    62.2919   186.0000 </r>
       <r>   -10.5683     0.3393   186.0327 </r>
       <r>   -10.4719    54.7172   193.2703 </r>
       <r>   -10.3756    20.4127   195.9661 </r>
       <r>   -10.2793    20.6529   197.9893 </r>
       <r>   -10.1830    20.3453   199.9600 </r>
       <r>   -10.0867    17.0101   201.6384 </r>
       <r>    -9.9903    43.2832   207.6530 </r>
       <r>    -9.8940    57.0665   213.5028 </r>
       <r>    -9.7977    17.7982   215.7812 </r>
       <r>    -9.7014    28.5238   219.2309 </r>
       <r>    -9.6051    14.0459   221.3699 </r>
       <r>    -9.5088    13.0290   224.0059 </r>
       <r>    -9.4124    21.3054   226.1530 </r>
       <r>    -9.3161    38.3796   229.9802 </r>
       <r>    -9.2198     1.0102   230.0973 </r>
       <r>    -9.1235    25.0866   234.0678 </r>
       <r>    -9.0272     9.6444   236.0000 </r>
       <r>    -8.9308    21.0336   238.0259 </r>
       <r>    -8.8345    20.7170   241.9955 </r>
       <r>    -8.7382    20.7557   243.9992 </r>
       <r>    -8.6419    60.8289   249.8590 </r>
       <r>    -8.5456    26.3758   252.5405 </r>
       <r>    -8.4492    25.4071   255.9979 </r>
       <r>    -8.3529     8.9381   256.8609 </r>
       <r>    -8.2566    20.9722   260.0201 </r>
       <r>    -8.1603    53.7659   266.1867 </r>
       <r>    -8.0640    28.3846   269.4343 </r>
       <r>    -7.9676    60.4528   276.5066 </r>
       <r>    -7.8713    65.6450   283.9907 </r>
       <r>    -7.7750     0.0000   284.0000 </r>
       <r>    -7.6787     0.0000   284.0000 </r>
       <r>    -7.5824     0.0000   284.0000 </r>
       <r>    -7.4860    20.7444   285.9981 </r>
       <r>    -7.3897     0.0000   286.0000 </r>
       <r>    -7.2934     0.0000   286.0000 </r>
       <r>    -7.1971     0.0000   286.0000 </r>
       <r>    -7.1008    41.5284   290.0000 </r>
       <r>    -7.0044     0.0000   290.0000 </r>
       <r>    -6.9081    41.4689   293.9943 </r>
       <r>    -6.8118    20.7641   296.0000 </r>
       <r>    -6.7155     0.0000   296.0000 </r>
       <r>    -6.6192    20.7642   298.0000 </r>
       <r>    -6.5228     0.0000   298.0000 </r>
       <r>    -6.4265     0.0319   298.0031 </r>
       <r>    -6.3302    40.3023   302.0000 </r>
       <r>    -6.2339    51.3290   306.9440 </r>
       <r>    -6.1376    59.7288   314.2931 </r>
       <r>    -6.0412    30.2412   317.9997 </r>
       <r>    -5.9449    22.9483   320.2607 </r>
       <r>    -5.8486    32.1116   325.2765 </r>
       <r>    -5.7523     1.5234   326.1467 </r>
       <r>    -5.6560    32.8145   329.9279 </r>
       <r>    -5.5596     0.0000   330.0000 </r>
       <r>    -5.4633    20.7695   332.0005 </r>
       <r>    -5.3670    20.7588   334.0000 </r>
       <r>    -5.2707     0.0000   334.0000 </r>
       <r>    -5.1744     0.0000   334.0000 </r>
       <r>    -5.0780     0.0000   334.0000 </r>
       <r>    -4.9817     0.0000   334.0000 </r>
       <r>    -4.8854     0.3799   334.0366 </r>
       <r>    -4.7891     0.0000   336.0000 </r>
       <r>    -4.6928     0.0000   336.0000 </r>
       <r>    -4.5964     0.0000   336.0000 </r>
       <r>    -4.5001    17.2583   337.6623 </r>
       <r>    -4.4038    38.7825   341.7355 </r>
       <r>    -4.3075     0.0000   342.0000 </r>
       <r>    -4.2112     0.0000   342.0000 </r>
       <r>    -4.1148     0.0000   342.0000 </r>
       <r>    -4.0185     0.0000   342.0000 </r>
       <r>    -3.9222     0.0000   342.0000 </r>
       <r>    -3.8259     0.0000   342.0000 </r>
       <r>    -3.7296     0.0000   342.0000 </r>
       <r>    -3.6333     0.0000   342.0000 </r>
       <r>    -3.5369     0.0000   342.0000 </r>
       <r>    -3.4406     0.0000   342.0000 </r>
       <r>    -3.3443     0.0000   342.0000 </r>
       <r>    -3.2480     0.0000   342.0000 </r>
       <r>    -3.1517     0.0000   342.0000 </r>
       <r>    -3.0553     0.0000   342.0000 </r>
       <r>    -2.9590     0.0000   342.0000 </r>
       <r>    -2.8627     0.0000   342.0000 </r>
       <r>    -2.7664     3.4930   342.3364 </r>
       <r>    -2.6701     0.0000   346.0000 </r>
       <r>    -2.5737     0.0000   346.0000 </r>
       <r>    -2.4774    18.0358   347.7372 </r>
       <r>    -2.3811     0.0000   350.0000 </r>
       <r>    -2.2848     0.0000   350.0000 </r>
       <r>    -2.1885     0.0000   350.0000 </r>
       <r>    -2.0921     0.0000   350.0000 </r>
       <r>    -1.9958     0.0000   350.0000 </r>
       <r>    -1.8995     0.0000   350.0000 </r>
       <r>    -1.8032     0.0000   350.0000 </r>
       <r>    -1.7069     0.0000   350.0000 </r>
       <r>    -1.6105     0.0000   350.0000 </r>
       <r>    -1.5142    20.7608   351.9997 </r>
       <r>    -1.4179     0.0000   352.0000 </r>
       <r>    -1.3216     0.0000   352.0000 </r>
       <r>    -1.2253    20.6510   353.9891 </r>
       <r>    -1.1289    88.9178   363.6362 </r>
       <r>    -1.0326    41.5283   368.0000 </r>
       <r>    -0.9363     0.0000   368.0000 </r>
       <r>    -0.8400     0.0000   368.0000 </r>
       <r>    -0.7437    40.9749   371.9467 </r>
       <r>    -0.6473     0.0000   372.0000 </r>
       <r>    -0.5510     0.0000   372.0000 </r>
       <r>    -0.4547     0.5397   372.0520 </r>
       <r>    -0.3584    35.2876   376.0000 </r>
       <r>    -0.2621    11.2642   377.0850 </r>
       <r>    -0.1657    25.9386   379.9999 </r>
       <r>    -0.0694    20.7506   381.9987 </r>
       <r>     0.0269    22.4698   384.1643 </r>
       <r>     0.1232    28.8975   387.9539 </r>
       <r>     0.2195    41.7280   392.0194 </r>
       <r>     0.3159    63.4113   399.2923 </r>
       <r>     0.4122    31.3148   403.0162 </r>
       <r>     0.5085    29.3004   407.1225 </r>
       <r>     0.6048    46.2811   412.0915 </r>
       <r>     0.7011    80.5839   420.4483 </r>
       <r>     0.7975    73.3048   429.1623 </r>
       <r>     0.8938    65.2563   436.3215 </r>
       <r>     0.9901    70.7026   444.8283 </r>
       <r>     1.0864    83.5592   453.9362 </r>
       <r>     1.1827    64.2717   461.5747 </r>
       <r>     1.2791    98.7352   472.0816 </r>
       <r>     1.3754    62.4101   479.0802 </r>
       <r>     1.4717     3.2792   480.0000 </r>
       <r>     1.5680     0.0000   480.0000 </r>
       <r>     1.6643     0.0000   480.0000 </r>
       <r>     1.7607     0.0000   480.0000 </r>
       <r>     1.8570     0.0000   480.0000 </r>
       <r>     1.9533     0.0000   480.0000 </r>
       <r>     2.0496     0.0000   480.0000 </r>
       <r>     2.1459     0.0000   480.0000 </r>
       <r>     2.2422     0.0000   480.0000 </r>
       <r>     2.3386     0.0000   480.0000 </r>
       <r>     2.4349     0.0000   480.0000 </r>
       <r>     2.5312     0.0000   480.0000 </r>
       <r>     2.6275     0.0000   480.0000 </r>
       <r>     2.7238     0.0000   480.0000 </r>
      </set>
     </set>
    </array>
   </total>
  </dos>
 </calculation>
 <structure name="finalpos" >
  <crystal>
   <varray name="basis" >
    <v>      24.88068610      -0.09201893       0.00000000 </v>
    <v>      -0.10881022      24.91605888       0.00000000 </v>
    <v>       0.00000000       0.00000000      20.00000000 </v>
   </varray>
   <i name="volume">  12398.37254072 </i>
   <varray name="rec_basis" >
    <v>       0.04019247       0.00017552       0.00000000 </v>
    <v>       0.00014844       0.04013541       0.00000000 </v>
    <v>       0.00000000       0.00000000       0.05000000 </v>
   </varray>
  </crystal>
  <varray name="positions" >
   <v>       0.29292406       0.90519781       0.40116667 </v>
   <v>       0.19476934       0.92291131       0.40214876 </v>
   <v>       0.99526468       0.78836076       0.41170886 </v>
   <v>       0.97482537       0.69066358       0.41504920 </v>
   <v>       0.79087253       0.00744814       0.40874466 </v>
   <v>       0.69335206       0.02804723       0.41018375 </v>
   <v>       0.07451722       0.19635016       0.40000166 </v>
   <v>       0.09195733       0.29465375       0.39874321 </v>
   <v>       0.62025913       0.08364025       0.46078709 </v>
   <v>       0.09836119       0.37908375       0.45946743 </v>
   <v>       0.37780448       0.90117764       0.46105088 </v>
   <v>       0.91584362       0.61811970       0.46606793 </v>
   <v>       0.45712595       0.06342086       0.42639435 </v>
   <v>       0.38021861       0.00367741       0.43680748 </v>
   <v>       0.93463499       0.45578275       0.43073877 </v>
   <v>       0.99510812       0.37989311       0.43806105 </v>
   <v>       0.30859607       0.98197453       0.59305523 </v>
   <v>       0.21033609       0.99852730       0.59462537 </v>
   <v>       0.20169055       0.07101280       0.49244492 </v>
   <v>       0.14207958       0.16046168       0.49565297 </v>
   <v>       0.03688033       0.02541267       0.50079151 </v>
   <v>       0.96440107       0.97501110       0.50531087 </v>
   <v>       0.15993477       0.86100205       0.51203684 </v>
   <v>       0.07034408       0.80019615       0.51662990 </v>
   <v>       0.92661258       0.80657292       0.60776988 </v>
   <v>       0.90509988       0.70911789       0.61064285 </v>
   <v>       0.85915033       0.83993865       0.50818337 </v>
   <v>       0.79947156       0.92939258       0.51062031 </v>
   <v>       0.93086749       0.20006736       0.49054698 </v>
   <v>       0.84134496       0.13910515       0.49491759 </v>
   <v>       0.80734696       0.07310035       0.60668285 </v>
   <v>       0.70996088       0.09453282       0.60787730 </v>
   <v>       0.02050959       0.30832324       0.59395816 </v>
   <v>       0.00427865       0.20985547       0.59577668 </v>
   <v>       0.62706419       0.10850214       0.54332221 </v>
   <v>       0.07813084       0.38334365       0.54410126 </v>
   <v>       0.38246032       0.92273717       0.54514975 </v>
   <v>       0.89279657       0.62519560       0.54932175 </v>
   <v>       0.62405977       0.00368514       0.57017615 </v>
   <v>       0.99823748       0.62306445       0.57271737 </v>
   <v>       0.07254794       0.27617554       0.44211742 </v>
   <v>       0.06307539       0.22083684       0.44284899 </v>
   <v>       0.71829959       0.03789371       0.45347630 </v>
   <v>       0.77294375       0.02604850       0.45271136 </v>
   <v>       0.97586633       0.77083183       0.45557783 </v>
   <v>       0.96413183       0.71607624       0.45743113 </v>
   <v>       0.21973666       0.93577132       0.44412088 </v>
   <v>       0.27496598       0.92605903       0.44361242 </v>
   <v>       0.47706500       0.03685844       0.46216156 </v>
   <v>       0.44870276       0.99302911       0.49133451 </v>
   <v>       0.96218398       0.47601302       0.46546836 </v>
   <v>       0.00681282       0.44831117       0.49270277 </v>
   <v>       0.15825481       0.07352600       0.49477360 </v>
   <v>       0.12778738       0.11924207       0.49602412 </v>
   <v>       0.07226240       0.10341832       0.49805837 </v>
   <v>       0.12250981       0.02807563       0.49737671 </v>
   <v>       0.13698759       0.97360294       0.49856211 </v>
   <v>       0.10088627       0.92956816       0.50103392 </v>
   <v>       0.02818113       0.88021878       0.50478503 </v>
   <v>       0.07325371       0.84339026       0.51030507 </v>
   <v>       0.11858062       0.87415200       0.50798905 </v>
   <v>       0.97393108       0.86305011       0.50694904 </v>
   <v>       0.92902789       0.89699455       0.50725398 </v>
   <v>       0.87874884       0.97223833       0.50747603 </v>
   <v>       0.84294062       0.92683935       0.50908965 </v>
   <v>       0.87344595       0.88115141       0.50823203 </v>
   <v>       0.86439484       0.02666082       0.50690371 </v>
   <v>       0.90053803       0.07061241       0.50486346 </v>
   <v>       0.97315858       0.12001479       0.50144502 </v>
   <v>       0.92803189       0.15683213       0.49639551 </v>
   <v>       0.88274405       0.12601597       0.49857209 </v>
   <v>       0.02735884       0.13732240       0.49924933 </v>
   <v>       0.03820679       0.19621561       0.49796590 </v>
   <v>       0.02321550       0.22859320       0.55236737 </v>
   <v>       0.03250522       0.28377152       0.55134172 </v>
   <v>       0.05733638       0.30833589       0.49618832 </v>
   <v>       0.80574111       0.03857390       0.50781326 </v>
   <v>       0.78228729       0.06326625       0.56356454 </v>
   <v>       0.72756920       0.07520085       0.56410061 </v>
   <v>       0.69493257       0.06269344       0.50913691 </v>
   <v>       0.96233686       0.80429515       0.50950753 </v>
   <v>       0.93835287       0.69316179       0.51298616 </v>
   <v>       0.92503274       0.72636345       0.56686834 </v>
   <v>       0.93691436       0.78119903       0.56527945 </v>
   <v>       0.19577381       0.96238200       0.49811902 </v>
   <v>       0.22860969       0.97860922       0.55179342 </v>
   <v>       0.28367104       0.96905302       0.55099933 </v>
   <v>       0.30764038       0.94273602       0.49680421 </v>
   <v>       0.63543645       0.07367867       0.51079328 </v>
   <v>       0.06576454       0.36832656       0.49476311 </v>
   <v>       0.36758082       0.93427486       0.49553150 </v>
   <v>       0.92702146       0.63364695       0.51558169 </v>
   <v>       0.55353848       0.01610461       0.52057031 </v>
   <v>       0.52482239       0.97259427       0.55042030 </v>
   <v>       0.55185872       0.94004162       0.59832125 </v>
   <v>       0.98450191       0.55252756       0.52342100 </v>
   <v>       0.02873588       0.52441561       0.55148203 </v>
   <v>       0.06259713       0.55156005       0.59831500 </v>
   <v>       0.52790132       0.04804201       0.47633379 </v>
   <v>       0.39523145       0.98400878       0.47698057 </v>
   <v>       0.95137355       0.52655203       0.48039797 </v>
   <v>       0.01571298       0.39519290       0.47751705 </v>
   <v>       0.07114790       0.04816562       0.49888827 </v>
   <v>       0.04587084       0.93233458       0.49963199 </v>
   <v>       0.93014538       0.95221966       0.50654567 </v>
   <v>       0.95555372       0.06785812       0.50608795 </v>
   <v>       0.47331318       0.96106659       0.53522944 </v>
   <v>       0.57804114       0.91660521       0.63707042 </v>
   <v>       0.60645787       0.02604943       0.53395756 </v>
   <v>       0.03979603       0.47319941       0.53562692 </v>
   <v>       0.08726035       0.57750421       0.63651372 </v>
   <v>       0.97496410       0.60518105       0.53732224 </v>
  </varray>
 </structure>
</modeling>
