<?xml version="1.0" encoding="ISO-8859-1"?>
<modeling>
 <generator>
  <i name="program" type="string">vasp </i>
  <i name="version" type="string">5.4.4.18Apr17-6-g9f103f2a35  </i>
  <i name="subversion" type="string">(build Jun 07 2020 16:50:00) complex            parallel </i>
  <i name="platform" type="string">LinuxIFC </i>
  <i name="date" type="string">2023 02 27 </i>
  <i name="time" type="string">11:18:12 </i>
 </generator>
 <incar>
  <i type="string" name="SYSTEM">Simulation for cell shape cell volume r</i>
  <i type="int" name="ISTART">     1</i>
  <i type="string" name="PREC">high</i>
  <i type="string" name="ALGO">48</i>
  <i type="int" name="ICHARG">    11</i>
  <i type="int" name="NELM">   200</i>
  <i type="int" name="IBRION">    -1</i>
  <i name="EDIFF">      0.00001000</i>
  <i name="EDIFFG">     -0.01000000</i>
  <i type="int" name="NSW">     0</i>
  <i type="int" name="ISIF">     2</i>
  <i name="ENCUT">    500.00000000</i>
  <i name="POTIM">      0.30000000</i>
  <i type="string" name="LREAL">A</i>
  <i type="int" name="ISMEAR">     0</i>
  <i name="SIGMA">      0.01000000</i>
  <i type="int" name="NWRITE">     0</i>
  <i type="logical" name="LWAVE"> F  </i>
  <i type="logical" name="LCHARG"> F  </i>
  <v type="int" name="KPOINT_BSE">    -1     0     0     0</v>
  <i type="int" name="NELM">   200</i>
  <i type="string" name="GGA">PE</i>
 </incar>
 <structure name="primitive_cell" >
  <crystal>
   <varray name="basis" >
    <v>      25.44696122       0.04179417       0.00000000 </v>
    <v>       0.02522003      25.42411374       0.00000000 </v>
    <v>       0.00000000       0.00000000      20.00000000 </v>
   </varray>
   <i name="volume">  12939.30764820 </i>
   <varray name="rec_basis" >
    <v>       0.03929749      -0.00003898       0.00000000 </v>
    <v>      -0.00006460       0.03933280       0.00000000 </v>
    <v>       0.00000000       0.00000000       0.05000000 </v>
   </varray>
  </crystal>
  <varray name="positions" >
   <v>       0.21476183      -0.02490874       0.45044416 </v>
   <v>       0.19501352      -0.04194170       0.40718101 </v>
   <v>       0.26922119      -0.02191368       0.45207911 </v>
   <v>       0.18418216      -0.00534737      -0.49626910 </v>
   <v>       0.29294732      -0.03646423       0.41056860 </v>
   <v>       0.20990769       0.01726986      -0.44116286 </v>
   <v>       0.29477201       0.00124052      -0.49287189 </v>
   <v>       0.12569388      -0.00769384      -0.49828105 </v>
   <v>       0.17325144      -0.11100715      -0.49684920 </v>
   <v>       0.26446478       0.02085594      -0.43964021 </v>
   <v>       0.13079200      -0.10691735      -0.49748255 </v>
   <v>       0.10137951      -0.05759464      -0.49825313 </v>
   <v>       0.18661388       0.03195008      -0.39933359 </v>
   <v>       0.09928909       0.04099900      -0.49944844 </v>
   <v>       0.16461863       0.09970037       0.49712144 </v>
   <v>       0.35179848       0.00616603      -0.49035643 </v>
   <v>       0.28406337       0.03845515      -0.39654757 </v>
   <v>       0.12270288       0.09227408       0.49852080 </v>
   <v>       0.38200699      -0.01541812       0.46591226 </v>
   <v>       0.09451237      -0.14602720      -0.49774294 </v>
   <v>       0.04826228      -0.06666946      -0.49783882 </v>
   <v>       0.36764270       0.03064376      -0.44946243 </v>
   <v>       0.04571633       0.04851303      -0.49973021 </v>
   <v>       0.04315313      -0.12033590      -0.49701221 </v>
   <v>       0.10174671      -0.18810380      -0.49847977 </v>
   <v>       0.01863242       0.01898667      -0.49854874 </v>
   <v>       0.08297965       0.12892515       0.49841614 </v>
   <v>       0.43596760      -0.01290117       0.46908461 </v>
   <v>       0.03386476       0.10137216       0.49928517 </v>
   <v>       0.08688990       0.17137979       0.49765122 </v>
   <v>       0.46095551      -0.00019501       0.41183624 </v>
   <v>       0.44089374      -0.04147712      -0.41165401 </v>
   <v>       0.42002191      -0.05336135      -0.36184455 </v>
   <v>      -0.00472065      -0.14841764      -0.49615882 </v>
   <v>       0.46607514      -0.02631349      -0.47295476 </v>
   <v>      -0.03980659      -0.04363374      -0.49807218 </v>
   <v>      -0.01664536       0.12383601      -0.49942303 </v>
   <v>       0.03534455      -0.21062915      -0.39801985 </v>
   <v>      -0.00219062      -0.20695769      -0.49471513 </v>
   <v>      -0.06700591      -0.07305433      -0.49698862 </v>
   <v>      -0.05530138      -0.12592478      -0.49615199 </v>
   <v>      -0.06952960       0.04219987      -0.49883015 </v>
   <v>       0.02039277      -0.23342194      -0.44007443 </v>
   <v>      -0.48694968       0.00051631       0.41265992 </v>
   <v>       0.00801931       0.19259809       0.40104024 </v>
   <v>      -0.06446157       0.09584708      -0.49867895 </v>
   <v>      -0.48126283      -0.02615920      -0.47308194 </v>
   <v>      -0.01903145       0.18243809      -0.49741147 </v>
   <v>      -0.02209135      -0.23686950       0.45166683 </v>
   <v>      -0.03904644      -0.21652847       0.40871744 </v>
   <v>      -0.00437363       0.21267655       0.44663267 </v>
   <v>      -0.46663030       0.01135434       0.36652305 </v>
   <v>      -0.45701698      -0.01245279       0.47000916 </v>
   <v>       0.02374448      -0.28807869      -0.43946989 </v>
   <v>      -0.12054934      -0.06535600      -0.49547421 </v>
   <v>      -0.12259314       0.03317026      -0.49813547 </v>
   <v>      -0.10453456      -0.15329970      -0.49371961 </v>
   <v>      -0.03559792       0.20844749      -0.43912783 </v>
   <v>       0.04139938      -0.30827190      -0.39679083 </v>
   <v>      -0.01940324      -0.29140609       0.45243377 </v>
   <v>      -0.04682231       0.18527871      -0.39553150 </v>
   <v>      -0.11576828       0.12160757      -0.49852575 </v>
   <v>       0.00377878      -0.31771358      -0.49303669 </v>
   <v>      -0.14682664      -0.01668468      -0.49619174 </v>
   <v>      -0.00600990       0.26723732       0.44886485 </v>
   <v>      -0.10865562      -0.19570385      -0.49189221 </v>
   <v>      -0.14414427      -0.11652373      -0.49392498 </v>
   <v>       0.00507361       0.29078436       0.40556463 </v>
   <v>      -0.40253580      -0.01018263       0.46416129 </v>
   <v>      -0.03420116      -0.31460339       0.41065065 </v>
   <v>      -0.15205725       0.08248247      -0.49773225 </v>
   <v>      -0.12277501       0.16374011      -0.49908811 </v>
   <v>      -0.03731329       0.26315682      -0.43673252 </v>
   <v>      -0.02242608       0.29333856      -0.49253446 </v>
   <v>      -0.39041271      -0.03793790      -0.43855813 </v>
   <v>       0.00827304      -0.37486494      -0.49148030 </v>
   <v>      -0.37322911      -0.02401153      -0.48599726 </v>
   <v>      -0.18612185      -0.12371221      -0.49306007 </v>
   <v>       0.03324152      -0.39144274      -0.45146878 </v>
   <v>      -0.20536356      -0.01862899      -0.49403471 </v>
   <v>      -0.05000938       0.28304832      -0.39107775 </v>
   <v>      -0.19454034       0.08639143      -0.49690626 </v>
   <v>      -0.21521701       0.00817887       0.40424583 </v>
   <v>      -0.20845479      -0.04592438      -0.39192711 </v>
   <v>      -0.01427963      -0.40440458       0.46492492 </v>
   <v>      -0.02439465       0.35049634      -0.48838861 </v>
   <v>      -0.23542054      -0.00414234       0.44972180 </v>
   <v>      -0.23146922      -0.03493479      -0.43579045 </v>
   <v>      -0.00976526       0.37988394       0.46228046 </v>
   <v>      -0.31613427      -0.02195228      -0.48981604 </v>
   <v>      -0.31333614       0.00518095       0.40811720 </v>
   <v>      -0.03897055       0.36762760      -0.44119119 </v>
   <v>      -0.01212528      -0.45847768       0.46756520 </v>
   <v>      -0.28992115      -0.00576184       0.45162644 </v>
   <v>      -0.30613426      -0.04896501      -0.38804730 </v>
   <v>      -0.28613339      -0.03654301      -0.43368669 </v>
   <v>      -0.00060066      -0.48351070       0.40987392 </v>
   <v>      -0.01185054       0.43440852       0.46831192 </v>
   <v>       0.00971008       0.44398659       0.36406105 </v>
   <v>      -0.05172315      -0.44205681      -0.36333926 </v>
   <v>      -0.03960015      -0.46325011      -0.41287691 </v>
   <v>      -0.02471843      -0.48860588      -0.47422119 </v>
   <v>      -0.00002756       0.46434703       0.41060102 </v>
   <v>      -0.02444155       0.45868435      -0.47430783 </v>
  </varray>
 </structure>
 <varray name="primitive_index" >
  <v type="int" >        1 </v>
  <v type="int" >       66 </v>
  <v type="int" >        2 </v>
  <v type="int" >       33 </v>
  <v type="int" >       65 </v>
  <v type="int" >       36 </v>
  <v type="int" >       34 </v>
  <v type="int" >       32 </v>
  <v type="int" >       81 </v>
  <v type="int" >       35 </v>
  <v type="int" >       30 </v>
  <v type="int" >       29 </v>
  <v type="int" >       85 </v>
  <v type="int" >       15 </v>
  <v type="int" >       72 </v>
  <v type="int" >       52 </v>
  <v type="int" >       86 </v>
  <v type="int" >       14 </v>
  <v type="int" >      104 </v>
  <v type="int" >       31 </v>
  <v type="int" >       98 </v>
  <v type="int" >       90 </v>
  <v type="int" >       95 </v>
  <v type="int" >       28 </v>
  <v type="int" >       82 </v>
  <v type="int" >       73 </v>
  <v type="int" >       13 </v>
  <v type="int" >       56 </v>
  <v type="int" >       16 </v>
  <v type="int" >       71 </v>
  <v type="int" >       93 </v>
  <v type="int" >       58 </v>
  <v type="int" >      103 </v>
  <v type="int" >       27 </v>
  <v type="int" >       57 </v>
  <v type="int" >       74 </v>
  <v type="int" >       17 </v>
  <v type="int" >       83 </v>
  <v type="int" >       37 </v>
  <v type="int" >       97 </v>
  <v type="int" >       24 </v>
  <v type="int" >       96 </v>
  <v type="int" >       40 </v>
  <v type="int" >       11 </v>
  <v type="int" >       60 </v>
  <v type="int" >       18 </v>
  <v type="int" >      102 </v>
  <v type="int" >       45 </v>
  <v type="int" >        3 </v>
  <v type="int" >       63 </v>
  <v type="int" >        7 </v>
  <v type="int" >       68 </v>
  <v type="int" >       12 </v>
  <v type="int" >       39 </v>
  <v type="int" >       23 </v>
  <v type="int" >       19 </v>
  <v type="int" >       25 </v>
  <v type="int" >       46 </v>
  <v type="int" >       84 </v>
  <v type="int" >        4 </v>
  <v type="int" >       70 </v>
  <v type="int" >       21 </v>
  <v type="int" >       38 </v>
  <v type="int" >       22 </v>
  <v type="int" >        8 </v>
  <v type="int" >       80 </v>
  <v type="int" >       26 </v>
  <v type="int" >       59 </v>
  <v type="int" >       94 </v>
  <v type="int" >       64 </v>
  <v type="int" >       20 </v>
  <v type="int" >       75 </v>
  <v type="int" >       48 </v>
  <v type="int" >       47 </v>
  <v type="int" >       88 </v>
  <v type="int" >       49 </v>
  <v type="int" >       50 </v>
  <v type="int" >       79 </v>
  <v type="int" >       87 </v>
  <v type="int" >       41 </v>
  <v type="int" >       69 </v>
  <v type="int" >       76 </v>
  <v type="int" >       61 </v>
  <v type="int" >       77 </v>
  <v type="int" >      101 </v>
  <v type="int" >       51 </v>
  <v type="int" >        6 </v>
  <v type="int" >       42 </v>
  <v type="int" >       92 </v>
  <v type="int" >       44 </v>
  <v type="int" >       62 </v>
  <v type="int" >       89 </v>
  <v type="int" >       53 </v>
  <v type="int" >        5 </v>
  <v type="int" >       78 </v>
  <v type="int" >       43 </v>
  <v type="int" >       91 </v>
  <v type="int" >       10 </v>
  <v type="int" >       67 </v>
  <v type="int" >      100 </v>
  <v type="int" >       55 </v>
  <v type="int" >       54 </v>
  <v type="int" >        9 </v>
  <v type="int" >       99 </v>
 </varray>
 <kpoints>
  <generation param="listgenerated">
   <i name="divisions" type="int">      20 </i>
   <v>       0.00000000       0.00000000       0.00000000 </v>
   <v>       0.50000000       0.00000000       0.00000000 </v>
   <v>       0.50000000       0.50000000       0.00000000 </v>
   <v>       0.00000000       0.00000000       0.00000000 </v>
  </generation>
  <varray name="kpointlist" >
   <v>       0.00000000       0.00000000       0.00000000 </v>
   <v>       0.02631579       0.00000000       0.00000000 </v>
   <v>       0.05263158       0.00000000       0.00000000 </v>
   <v>       0.07894737       0.00000000       0.00000000 </v>
   <v>       0.10526316       0.00000000       0.00000000 </v>
   <v>       0.13157895       0.00000000       0.00000000 </v>
   <v>       0.15789474       0.00000000       0.00000000 </v>
   <v>       0.18421053       0.00000000       0.00000000 </v>
   <v>       0.21052632       0.00000000       0.00000000 </v>
   <v>       0.23684211       0.00000000       0.00000000 </v>
   <v>       0.26315789       0.00000000       0.00000000 </v>
   <v>       0.28947368       0.00000000       0.00000000 </v>
   <v>       0.31578947       0.00000000       0.00000000 </v>
   <v>       0.34210526       0.00000000       0.00000000 </v>
   <v>       0.36842105       0.00000000       0.00000000 </v>
   <v>       0.39473684       0.00000000       0.00000000 </v>
   <v>       0.42105263       0.00000000       0.00000000 </v>
   <v>       0.44736842       0.00000000       0.00000000 </v>
   <v>       0.47368421       0.00000000       0.00000000 </v>
   <v>       0.50000000       0.00000000       0.00000000 </v>
   <v>       0.50000000       0.00000000       0.00000000 </v>
   <v>       0.50000000       0.02631579       0.00000000 </v>
   <v>       0.50000000       0.05263158       0.00000000 </v>
   <v>       0.50000000       0.07894737       0.00000000 </v>
   <v>       0.50000000       0.10526316       0.00000000 </v>
   <v>       0.50000000       0.13157895       0.00000000 </v>
   <v>       0.50000000       0.15789474       0.00000000 </v>
   <v>       0.50000000       0.18421053       0.00000000 </v>
   <v>       0.50000000       0.21052632       0.00000000 </v>
   <v>       0.50000000       0.23684211       0.00000000 </v>
   <v>       0.50000000       0.26315789       0.00000000 </v>
   <v>       0.50000000       0.28947368       0.00000000 </v>
   <v>       0.50000000       0.31578947       0.00000000 </v>
   <v>       0.50000000       0.34210526       0.00000000 </v>
   <v>       0.50000000       0.36842105       0.00000000 </v>
   <v>       0.50000000       0.39473684       0.00000000 </v>
   <v>       0.50000000       0.42105263       0.00000000 </v>
   <v>       0.50000000       0.44736842       0.00000000 </v>
   <v>       0.50000000       0.47368421       0.00000000 </v>
   <v>       0.50000000       0.50000000       0.00000000 </v>
   <v>       0.50000000       0.50000000       0.00000000 </v>
   <v>       0.47368421       0.47368421       0.00000000 </v>
   <v>       0.44736842       0.44736842       0.00000000 </v>
   <v>       0.42105263       0.42105263       0.00000000 </v>
   <v>       0.39473684       0.39473684       0.00000000 </v>
   <v>       0.36842105       0.36842105       0.00000000 </v>
   <v>       0.34210526       0.34210526       0.00000000 </v>
   <v>       0.31578947       0.31578947       0.00000000 </v>
   <v>       0.28947368       0.28947368       0.00000000 </v>
   <v>       0.26315789       0.26315789       0.00000000 </v>
   <v>       0.23684211       0.23684211       0.00000000 </v>
   <v>       0.21052632       0.21052632       0.00000000 </v>
   <v>       0.18421053       0.18421053       0.00000000 </v>
   <v>       0.15789474       0.15789474       0.00000000 </v>
   <v>       0.13157895       0.13157895       0.00000000 </v>
   <v>       0.10526316       0.10526316       0.00000000 </v>
   <v>       0.07894737       0.07894737       0.00000000 </v>
   <v>       0.05263158       0.05263158       0.00000000 </v>
   <v>       0.02631579       0.02631579       0.00000000 </v>
   <v>       0.00000000       0.00000000       0.00000000 </v>
  </varray>
  <varray name="weights" >
   <v>       0.01666667 </v>
   <v>       0.01666667 </v>
   <v>       0.01666667 </v>
   <v>       0.01666667 </v>
   <v>       0.01666667 </v>
   <v>       0.01666667 </v>
   <v>       0.01666667 </v>
   <v>       0.01666667 </v>
   <v>       0.01666667 </v>
   <v>       0.01666667 </v>
   <v>       0.01666667 </v>
   <v>       0.01666667 </v>
   <v>       0.01666667 </v>
   <v>       0.01666667 </v>
   <v>       0.01666667 </v>
   <v>       0.01666667 </v>
   <v>       0.01666667 </v>
   <v>       0.01666667 </v>
   <v>       0.01666667 </v>
   <v>       0.01666667 </v>
   <v>       0.01666667 </v>
   <v>       0.01666667 </v>
   <v>       0.01666667 </v>
   <v>       0.01666667 </v>
   <v>       0.01666667 </v>
   <v>       0.01666667 </v>
   <v>       0.01666667 </v>
   <v>       0.01666667 </v>
   <v>       0.01666667 </v>
   <v>       0.01666667 </v>
   <v>       0.01666667 </v>
   <v>       0.01666667 </v>
   <v>       0.01666667 </v>
   <v>       0.01666667 </v>
   <v>       0.01666667 </v>
   <v>       0.01666667 </v>
   <v>       0.01666667 </v>
   <v>       0.01666667 </v>
   <v>       0.01666667 </v>
   <v>       0.01666667 </v>
   <v>       0.01666667 </v>
   <v>       0.01666667 </v>
   <v>       0.01666667 </v>
   <v>       0.01666667 </v>
   <v>       0.01666667 </v>
   <v>       0.01666667 </v>
   <v>       0.01666667 </v>
   <v>       0.01666667 </v>
   <v>       0.01666667 </v>
   <v>       0.01666667 </v>
   <v>       0.01666667 </v>
   <v>       0.01666667 </v>
   <v>       0.01666667 </v>
   <v>       0.01666667 </v>
   <v>       0.01666667 </v>
   <v>       0.01666667 </v>
   <v>       0.01666667 </v>
   <v>       0.01666667 </v>
   <v>       0.01666667 </v>
   <v>       0.01666667 </v>
  </varray>
 </kpoints>
 <parameters>
  <separator name="general" >
   <i type="string" name="SYSTEM">Simulation for cell shape cell volume r</i>
   <i type="logical" name="LCOMPAT"> F  </i>
  </separator>
  <separator name="electronic" >
   <i type="string" name="PREC">high</i>
   <i name="ENMAX">    500.00000000</i>
   <i name="ENAUG">    644.87300000</i>
   <i name="EDIFF">      0.00001000</i>
   <i type="int" name="IALGO">    38</i>
   <i type="int" name="IWAVPR">    10</i>
   <i type="int" name="NBANDS">   224</i>
   <i name="NELECT">    334.00000000</i>
   <i type="int" name="TURBO">     0</i>
   <i type="int" name="IRESTART">     0</i>
   <i type="int" name="NREBOOT">     0</i>
   <i type="int" name="NMIN">     0</i>
   <i name="EREF">      0.00000000</i>
   <separator name="electronic smearing" >
    <i type="int" name="ISMEAR">     0</i>
    <i name="SIGMA">      0.01000000</i>
    <i name="KSPACING">      0.50000000</i>
    <i type="logical" name="KGAMMA"> T  </i>
   </separator>
   <separator name="electronic projectors" >
    <i type="logical" name="LREAL"> T  </i>
    <v name="ROPT">     -0.00040000     -0.00040000     -0.00040000</v>
    <i type="int" name="LMAXPAW">  -100</i>
    <i type="int" name="LMAXMIX">     2</i>
    <i type="logical" name="NLSPLINE"> F  </i>
   </separator>
   <separator name="electronic startup" >
    <i type="int" name="ISTART">     1</i>
    <i type="int" name="ICHARG">    11</i>
    <i type="int" name="INIWAV">     1</i>
   </separator>
   <separator name="electronic spin" >
    <i type="int" name="ISPIN">     1</i>
    <i type="logical" name="LNONCOLLINEAR"> F  </i>
    <v name="MAGMOM">      1.00000000      1.00000000      1.00000000      1.00000000      1.00000000      1.00000000      1.00000000      1.00000000      1.00000000      1.00000000      1.00000000      1.00000000      1.00000000      1.00000000      1.00000000      1.00000000      1.00000000      1.00000000      1.00000000      1.00000000
      1.00000000      1.00000000      1.00000000      1.00000000      1.00000000      1.00000000      1.00000000      1.00000000      1.00000000      1.00000000      1.00000000      1.00000000      1.00000000      1.00000000      1.00000000      1.00000000      1.00000000      1.00000000      1.00000000      1.00000000
      1.00000000      1.00000000      1.00000000      1.00000000      1.00000000      1.00000000      1.00000000      1.00000000      1.00000000      1.00000000      1.00000000      1.00000000      1.00000000      1.00000000      1.00000000      1.00000000      1.00000000      1.00000000      1.00000000      1.00000000
      1.00000000      1.00000000      1.00000000      1.00000000      1.00000000      1.00000000      1.00000000      1.00000000      1.00000000      1.00000000      1.00000000      1.00000000      1.00000000      1.00000000      1.00000000      1.00000000      1.00000000      1.00000000      1.00000000      1.00000000
      1.00000000      1.00000000      1.00000000      1.00000000      1.00000000      1.00000000      1.00000000      1.00000000      1.00000000      1.00000000      1.00000000      1.00000000      1.00000000      1.00000000      1.00000000      1.00000000      1.00000000      1.00000000      1.00000000      1.00000000
      1.00000000      1.00000000      1.00000000      1.00000000</v>
    <i name="NUPDOWN">     -1.00000000</i>
    <i type="logical" name="LSORBIT"> F  </i>
    <v name="SAXIS">      0.00000000      0.00000000      1.00000000</v>
    <i type="logical" name="LSPIRAL"> F  </i>
    <v name="QSPIRAL">      0.00000000      0.00000000      0.00000000</v>
    <i type="logical" name="LZEROZ"> F  </i>
   </separator>
   <separator name="electronic exchange-correlation" >
    <i type="logical" name="LASPH"> F  </i>
    <i type="logical" name="LMETAGGA"> F  </i>
   </separator>
   <separator name="electronic convergence" >
    <i type="int" name="NELM">   200</i>
    <i type="int" name="NELMDL">     0</i>
    <i type="int" name="NELMIN">     2</i>
    <i name="ENINI">    500.00000000</i>
    <separator name="electronic convergence detail" >
     <i type="logical" name="LDIAG"> T  </i>
     <i type="logical" name="LSUBROT"> F  </i>
     <i name="WEIMIN">      0.00000000</i>
     <i name="EBREAK">      0.00000001</i>
     <i name="DEPER">      0.30000000</i>
     <i type="int" name="NRMM">     4</i>
     <i name="TIME">      0.40000000</i>
    </separator>
   </separator>
   <separator name="electronic mixer" >
    <i name="AMIX">      0.40000000</i>
    <i name="BMIX">      1.00000000</i>
    <i name="AMIN">      0.10000000</i>
    <i name="AMIX_MAG">      1.60000000</i>
    <i name="BMIX_MAG">      1.00000000</i>
    <separator name="electronic mixer details" >
     <i type="int" name="IMIX">     4</i>
     <i type="logical" name="MIXFIRST"> F  </i>
     <i type="int" name="MAXMIX">   -45</i>
     <i name="WC">    100.00000000</i>
     <i type="int" name="INIMIX">     1</i>
     <i type="int" name="MIXPRE">     1</i>
     <i type="int" name="MREMOVE">     5</i>
    </separator>
   </separator>
   <separator name="electronic dipolcorrection" >
    <i type="logical" name="LDIPOL"> F  </i>
    <i type="logical" name="LMONO"> F  </i>
    <i type="int" name="IDIPOL">     0</i>
    <i name="EPSILON">      1.00000000</i>
    <v name="DIPOL">   -100.00000000   -100.00000000   -100.00000000</v>
    <i name="EFIELD">      0.00000000</i>
   </separator>
  </separator>
  <separator name="grids" >
   <i type="int" name="NGX">   192</i>
   <i type="int" name="NGY">   192</i>
   <i type="int" name="NGZ">   150</i>
   <i type="int" name="NGXF">   288</i>
   <i type="int" name="NGYF">   280</i>
   <i type="int" name="NGZF">   224</i>
   <i type="logical" name="ADDGRID"> F  </i>
  </separator>
  <separator name="ionic" >
   <i type="int" name="NSW">     0</i>
   <i type="int" name="IBRION">    -1</i>
   <i type="int" name="MDALGO">     0</i>
   <i type="int" name="ISIF">     2</i>
   <i name="PSTRESS">      0.00000000</i>
   <i name="EDIFFG">     -0.01000000</i>
   <i type="int" name="NFREE">     0</i>
   <i name="POTIM">      0.30000000</i>
   <i name="SMASS">     -3.00000000</i>
   <i name="SCALEE">      1.00000000</i>
  </separator>
  <separator name="ionic md" >
   <i name="TEBEG">      0.00010000</i>
   <i name="TEEND">      0.00010000</i>
   <i type="int" name="NBLOCK">     1</i>
   <i type="int" name="KBLOCK">     1</i>
   <i type="int" name="NPACO">   256</i>
   <i name="APACO">     16.00000000</i>
  </separator>
  <separator name="symmetry" >
   <i type="int" name="ISYM">     2</i>
   <i name="SYMPREC">      0.00001000</i>
  </separator>
  <separator name="dos" >
   <i type="int" name="LORBIT">     0</i>
   <v name="RWIGS">     -1.00000000     -1.00000000     -1.00000000</v>
   <i type="int" name="NEDOS">   301</i>
   <i name="EMIN">     10.00000000</i>
   <i name="EMAX">    -10.00000000</i>
   <i name="EFERMI">      0.00000000</i>
  </separator>
  <separator name="writing" >
   <i type="int" name="NWRITE">     0</i>
   <i type="logical" name="LWAVE"> F  </i>
   <i type="logical" name="LDOWNSAMPLE"> F  </i>
   <i type="logical" name="LCHARG"> F  </i>
   <i type="logical" name="LPARD"> F  </i>
   <i type="logical" name="LVTOT"> F  </i>
   <i type="logical" name="LVHAR"> F  </i>
   <i type="logical" name="LELF"> F  </i>
   <i type="logical" name="LOPTICS"> F  </i>
   <v name="STM">      0.00000000      0.00000000      0.00000000      0.00000000      0.00000000      0.00000000      0.00000000</v>
  </separator>
  <separator name="performance" >
   <i type="int" name="NPAR">    16</i>
   <i type="int" name="NSIM">     4</i>
   <i type="int" name="NBLK">    -1</i>
   <i type="logical" name="LPLANE"> T  </i>
   <i type="logical" name="LSCALAPACK"> T  </i>
   <i type="logical" name="LSCAAWARE"> F  </i>
   <i type="logical" name="LSCALU"> F  </i>
   <i type="logical" name="LASYNC"> F  </i>
   <i type="logical" name="LORBITALREAL"> F  </i>
  </separator>
  <separator name="miscellaneous" >
   <i type="int" name="IDIOT">     3</i>
   <i type="int" name="ISPECIAL">     0</i>
   <i type="logical" name="LMUSIC"> F  </i>
   <v name="POMASS">     12.01100000      1.00000000     14.00100000</v>
   <v name="DARWINR">      0.00000000      0.00000000      0.00000000</v>
   <v name="DARWINV">      1.00000000      1.00000000      1.00000000</v>
   <i type="logical" name="LCORR"> T  </i>
  </separator>
  <i type="logical" name="GGA_COMPAT"> T  </i>
  <i type="logical" name="LBERRY"> F  </i>
  <i type="int" name="ICORELEVEL">     0</i>
  <i type="logical" name="LDAU"> F  </i>
  <i type="int" name="I_CONSTRAINED_M">     0</i>
  <separator name="electronic exchange-correlation" >
   <i type="string" name="GGA">PE</i>
   <i type="int" name="VOSKOWN">     0</i>
   <i type="logical" name="LHFCALC"> F  </i>
   <i type="string" name="PRECFOCK"></i>
   <i type="logical" name="LSYMGRAD"> F  </i>
   <i type="logical" name="LHFONE"> F  </i>
   <i type="logical" name="LRHFCALC"> F  </i>
   <i type="logical" name="LTHOMAS"> F  </i>
   <i type="logical" name="LMODELHF"> F  </i>
   <i name="ENCUT4O">     -1.00000000</i>
   <i type="int" name="EXXOEP">     0</i>
   <i type="int" name="FOURORBIT">     0</i>
   <i name="AEXX">      0.00000000</i>
   <i name="HFALPHA">      0.00000000</i>
   <i name="MCALPHA">      0.00000000</i>
   <i name="ALDAX">      1.00000000</i>
   <i name="AGGAX">      1.00000000</i>
   <i name="ALDAC">      1.00000000</i>
   <i name="AGGAC">      1.00000000</i>
   <i type="int" name="NKREDX">     1</i>
   <i type="int" name="NKREDY">     1</i>
   <i type="int" name="NKREDZ">     1</i>
   <i type="logical" name="SHIFTRED"> F  </i>
   <i type="logical" name="ODDONLY"> F  </i>
   <i type="logical" name="EVENONLY"> F  </i>
   <i type="int" name="LMAXFOCK">     0</i>
   <i type="int" name="NMAXFOCKAE">     0</i>
   <i type="logical" name="LFOCKAEDFT"> F  </i>
   <i name="HFSCREEN">      0.00000000</i>
   <i name="HFSCREENC">      0.00000000</i>
   <i type="int" name="NBANDSGWLOW">     0</i>
  </separator>
  <separator name="vdW DFT" >
   <i type="logical" name="LUSE_VDW"> F  </i>
   <i name="Zab_VDW">     -0.84910000</i>
   <i name="PARAM1">      0.12340000</i>
   <i name="PARAM2">      1.00000000</i>
   <i name="PARAM3">      0.00000000</i>
  </separator>
  <separator name="model GW" >
   <i type="int" name="MODEL_GW">     0</i>
   <i name="MODEL_EPS0">     74.64985182</i>
   <i name="MODEL_ALPHA">      1.00000000</i>
  </separator>
  <separator name="linear response parameters" >
   <i type="logical" name="LEPSILON"> F  </i>
   <i type="logical" name="LRPA"> F  </i>
   <i type="logical" name="LNABLA"> F  </i>
   <i type="logical" name="LVEL"> F  </i>
   <i type="int" name="KINTER">     0</i>
   <i name="CSHIFT">      0.10000000</i>
   <i name="OMEGAMAX">     -1.00000000</i>
   <i name="DEG_THRESHOLD">      0.00200000</i>
   <i name="RTIME">     -0.10000000</i>
   <i name="WPLASMAI">      0.00000000</i>
   <v name="DFIELD">      0.00000000      0.00000000      0.00000000</v>
   <v name="WPLASMA">      0.00000000      0.00000000      0.00000000      0.00000000      0.00000000      0.00000000      0.00000000      0.00000000      0.00000000</v>
  </separator>
  <separator name="orbital magnetization" >
   <i type="logical" name="NUCIND"> F  </i>
   <v name="MAGPOS">      0.00000000      0.00000000      0.00000000</v>
   <i type="logical" name="LNICSALL"> T  </i>
   <i type="logical" name="ORBITALMAG"> F  </i>
   <i type="logical" name="LMAGBLOCH"> F  </i>
   <i type="logical" name="LCHIMAG"> F  </i>
   <i type="logical" name="LGAUGE"> T  </i>
   <i type="int" name="MAGATOM">     0</i>
   <v name="MAGDIPOL">      0.00000000      0.00000000      0.00000000</v>
   <v name="AVECCONST">      0.00000000      0.00000000      0.00000000</v>
  </separator>
  <separator name="response functions" >
   <i type="logical" name="LADDER"> F  </i>
   <i type="logical" name="LRPAFORCE"> F  </i>
   <i type="logical" name="LFXC"> F  </i>
   <i type="logical" name="LHARTREE"> T  </i>
   <i type="int" name="IBSE">     0</i>
   <v type="int" name="KPOINT">    -1     0     0     0</v>
   <i type="logical" name="LTCTE"> F  </i>
   <i type="logical" name="LTETE"> F  </i>
   <i type="logical" name="LTRIPLET"> F  </i>
   <i type="logical" name="LFXCEPS"> F  </i>
   <i type="logical" name="LFXHEG"> F  </i>
   <i type="int" name="NATURALO">     2</i>
   <i type="logical" name="L2ORDER"> F  </i>
   <i type="logical" name="LMP2LT"> F  </i>
   <i type="logical" name="LUSEW"> F  </i>
   <i name="ENCUTGW">     -2.00000000</i>
   <i name="ENCUTGWSOFT">     -2.00000000</i>
   <i name="ENCUTLF">     -1.00000000</i>
   <i type="int" name="LMAXMP2">    -1</i>
   <i name="SCISSOR">      0.00000000</i>
   <i type="int" name="NOMEGA">     0</i>
   <i type="int" name="NOMEGAR">     0</i>
   <i type="int" name="NBANDSGW">    -1</i>
   <i type="int" name="NBANDSO">    -1</i>
   <i type="int" name="NBANDSV">    -1</i>
   <i type="int" name="NELM">   200</i>
   <i type="int" name="NELMHF">     1</i>
   <i type="int" name="DIM">     3</i>
   <i type="int" name="ANTIRES">     0</i>
   <i name="OMEGAMAX">    -30.00000000</i>
   <i name="OMEGAMIN">    -30.00000000</i>
   <i name="OMEGATL">   -200.00000000</i>
   <i type="int" name="OMEGAGRID">   140</i>
   <i name="CSHIFT">     -0.10000000</i>
   <i type="logical" name="SELFENERGY"> F  </i>
   <i type="logical" name="LSPECTRAL"> F  </i>
   <i type="logical" name="LSPECTRALGW"> F  </i>
   <i type="logical" name="LSINGLES"> F  </i>
   <i type="logical" name="LFERMIGW"> F  </i>
   <i type="logical" name="ODDONLYGW"> F  </i>
   <i type="logical" name="EVENONLYGW"> F  </i>
   <i type="int" name="NKREDLFX">     1</i>
   <i type="int" name="NKREDLFY">     1</i>
   <i type="int" name="NKREDLFZ">     1</i>
   <i type="int" name="MAXMEM">  2800</i>
   <i type="int" name="TELESCOPE">     0</i>
   <i type="int" name="TAUPAR">     1</i>
   <i type="int" name="OMEGAPAR">    -1</i>
   <i name="LAMBDA">      1.00000000</i>
  </separator>
  <separator name="External order field" >
   <i name="OFIELD_KAPPA">      0.00000000</i>
   <v name="OFIELD_K">      0.00000000      0.00000000      0.00000000</v>
   <i name="OFIELD_Q6_NEAR">      0.00000000</i>
   <i name="OFIELD_Q6_FAR">      0.00000000</i>
   <i name="OFIELD_A">      0.00000000</i>
  </separator>
  <separator name="solvation model" >
   <i type="logical" name="LSOL"> F  </i>
  </separator>
 </parameters>
 <atominfo>
  <atoms>     104 </atoms>
  <types>       3 </types>
  <array name="atoms" >
   <dimension dim="1">ion</dimension>
   <field type="string">element</field>
   <field type="int">atomtype</field>
   <set>
    <rc><c>C </c><c>   1</c></rc>
    <rc><c>C </c><c>   1</c></rc>
    <rc><c>C </c><c>   1</c></rc>
    <rc><c>C </c><c>   1</c></rc>
    <rc><c>C </c><c>   1</c></rc>
    <rc><c>C </c><c>   1</c></rc>
    <rc><c>C </c><c>   1</c></rc>
    <rc><c>C </c><c>   1</c></rc>
    <rc><c>C </c><c>   1</c></rc>
    <rc><c>C </c><c>   1</c></rc>
    <rc><c>C </c><c>   1</c></rc>
    <rc><c>C </c><c>   1</c></rc>
    <rc><c>C </c><c>   1</c></rc>
    <rc><c>C </c><c>   1</c></rc>
    <rc><c>C </c><c>   1</c></rc>
    <rc><c>C </c><c>   1</c></rc>
    <rc><c>C </c><c>   1</c></rc>
    <rc><c>C </c><c>   1</c></rc>
    <rc><c>C </c><c>   1</c></rc>
    <rc><c>C </c><c>   1</c></rc>
    <rc><c>C </c><c>   1</c></rc>
    <rc><c>C </c><c>   1</c></rc>
    <rc><c>C </c><c>   1</c></rc>
    <rc><c>C </c><c>   1</c></rc>
    <rc><c>C </c><c>   1</c></rc>
    <rc><c>C </c><c>   1</c></rc>
    <rc><c>C </c><c>   1</c></rc>
    <rc><c>C </c><c>   1</c></rc>
    <rc><c>C </c><c>   1</c></rc>
    <rc><c>C </c><c>   1</c></rc>
    <rc><c>C </c><c>   1</c></rc>
    <rc><c>C </c><c>   1</c></rc>
    <rc><c>C </c><c>   1</c></rc>
    <rc><c>C </c><c>   1</c></rc>
    <rc><c>C </c><c>   1</c></rc>
    <rc><c>C </c><c>   1</c></rc>
    <rc><c>C </c><c>   1</c></rc>
    <rc><c>C </c><c>   1</c></rc>
    <rc><c>C </c><c>   1</c></rc>
    <rc><c>C </c><c>   1</c></rc>
    <rc><c>C </c><c>   1</c></rc>
    <rc><c>C </c><c>   1</c></rc>
    <rc><c>C </c><c>   1</c></rc>
    <rc><c>C </c><c>   1</c></rc>
    <rc><c>C </c><c>   1</c></rc>
    <rc><c>C </c><c>   1</c></rc>
    <rc><c>C </c><c>   1</c></rc>
    <rc><c>C </c><c>   1</c></rc>
    <rc><c>C </c><c>   1</c></rc>
    <rc><c>C </c><c>   1</c></rc>
    <rc><c>C </c><c>   1</c></rc>
    <rc><c>C </c><c>   1</c></rc>
    <rc><c>C </c><c>   1</c></rc>
    <rc><c>C </c><c>   1</c></rc>
    <rc><c>C </c><c>   1</c></rc>
    <rc><c>C </c><c>   1</c></rc>
    <rc><c>C </c><c>   1</c></rc>
    <rc><c>C </c><c>   1</c></rc>
    <rc><c>H </c><c>   2</c></rc>
    <rc><c>H </c><c>   2</c></rc>
    <rc><c>H </c><c>   2</c></rc>
    <rc><c>H </c><c>   2</c></rc>
    <rc><c>H </c><c>   2</c></rc>
    <rc><c>H </c><c>   2</c></rc>
    <rc><c>H </c><c>   2</c></rc>
    <rc><c>H </c><c>   2</c></rc>
    <rc><c>H </c><c>   2</c></rc>
    <rc><c>H </c><c>   2</c></rc>
    <rc><c>H </c><c>   2</c></rc>
    <rc><c>H </c><c>   2</c></rc>
    <rc><c>H </c><c>   2</c></rc>
    <rc><c>H </c><c>   2</c></rc>
    <rc><c>H </c><c>   2</c></rc>
    <rc><c>H </c><c>   2</c></rc>
    <rc><c>H </c><c>   2</c></rc>
    <rc><c>H </c><c>   2</c></rc>
    <rc><c>H </c><c>   2</c></rc>
    <rc><c>H </c><c>   2</c></rc>
    <rc><c>H </c><c>   2</c></rc>
    <rc><c>H </c><c>   2</c></rc>
    <rc><c>H </c><c>   2</c></rc>
    <rc><c>H </c><c>   2</c></rc>
    <rc><c>H </c><c>   2</c></rc>
    <rc><c>H </c><c>   2</c></rc>
    <rc><c>H </c><c>   2</c></rc>
    <rc><c>H </c><c>   2</c></rc>
    <rc><c>H </c><c>   2</c></rc>
    <rc><c>H </c><c>   2</c></rc>
    <rc><c>H </c><c>   2</c></rc>
    <rc><c>H </c><c>   2</c></rc>
    <rc><c>N </c><c>   3</c></rc>
    <rc><c>N </c><c>   3</c></rc>
    <rc><c>N </c><c>   3</c></rc>
    <rc><c>N </c><c>   3</c></rc>
    <rc><c>N </c><c>   3</c></rc>
    <rc><c>N </c><c>   3</c></rc>
    <rc><c>N </c><c>   3</c></rc>
    <rc><c>N </c><c>   3</c></rc>
    <rc><c>N </c><c>   3</c></rc>
    <rc><c>N </c><c>   3</c></rc>
    <rc><c>N </c><c>   3</c></rc>
    <rc><c>N </c><c>   3</c></rc>
    <rc><c>N </c><c>   3</c></rc>
    <rc><c>N </c><c>   3</c></rc>
   </set>
  </array>
  <array name="atomtypes" >
   <dimension dim="1">type</dimension>
   <field type="int">atomspertype</field>
   <field type="string">element</field>
   <field>mass</field>
   <field>valence</field>
   <field type="string">pseudopotential</field>
   <set>
    <rc><c>  58</c><c>C </c><c>     12.01100000</c><c>      4.00000000</c><c>  PAW_PBE C 08Apr2002                   </c></rc>
    <rc><c>  32</c><c>H </c><c>      1.00000000</c><c>      1.00000000</c><c>  PAW_PBE H 15Jun2001                   </c></rc>
    <rc><c>  14</c><c>N </c><c>     14.00100000</c><c>      5.00000000</c><c>  PAW_PBE N 08Apr2002                   </c></rc>
   </set>
  </array>
 </atominfo>
 <structure name="initialpos" >
  <crystal>
   <varray name="basis" >
    <v>      25.44696122       0.04179417       0.00000000 </v>
    <v>       0.02522003      25.42411374       0.00000000 </v>
    <v>       0.00000000       0.00000000      20.00000000 </v>
   </varray>
   <i name="volume">  12939.30764820 </i>
   <varray name="rec_basis" >
    <v>       0.03929749      -0.00003898       0.00000000 </v>
    <v>      -0.00006460       0.03933280       0.00000000 </v>
    <v>       0.00000000       0.00000000       0.05000000 </v>
   </varray>
  </crystal>
  <varray name="positions" >
   <v>       0.21476183       0.97509126       0.45044416 </v>
   <v>       0.26922119       0.97808632       0.45207911 </v>
   <v>       0.97790865       0.76313050       0.45166683 </v>
   <v>       0.98059676       0.70859391       0.45243377 </v>
   <v>       0.71007885       0.99423816       0.45162644 </v>
   <v>       0.76457946       0.99585766       0.44972180 </v>
   <v>       0.99562637       0.21267655       0.44663267 </v>
   <v>       0.99399010       0.26723732       0.44886485 </v>
   <v>       0.99997244       0.46434703       0.41060102 </v>
   <v>       0.98814946       0.43440852       0.46831192 </v>
   <v>       0.51305032       0.00051631       0.41265992 </v>
   <v>       0.54298302       0.98754721       0.47000916 </v>
   <v>       0.08297965       0.12892515       0.49841614 </v>
   <v>       0.12270288       0.09227408       0.49852080 </v>
   <v>       0.09928909       0.04099900       0.50055156 </v>
   <v>       0.03386476       0.10137216       0.49928517 </v>
   <v>       0.98335464       0.12383601       0.50057697 </v>
   <v>       0.93553843       0.09584708       0.50132105 </v>
   <v>       0.87740686       0.03317026       0.50186453 </v>
   <v>       0.84794275       0.08248247       0.50226775 </v>
   <v>       0.88423172       0.12160757       0.50147425 </v>
   <v>       0.85317336       0.98331532       0.50380826 </v>
   <v>       0.87945066       0.93464400       0.50452579 </v>
   <v>       0.94469862       0.87407522       0.50384801 </v>
   <v>       0.89546544       0.84670030       0.50628039 </v>
   <v>       0.85585573       0.88347627       0.50607502 </v>
   <v>       0.99527935       0.85158236       0.50384118 </v>
   <v>       0.04315313       0.87966410       0.50298779 </v>
   <v>       0.10137951       0.94240536       0.50174687 </v>
   <v>       0.13079200       0.89308265       0.50251745 </v>
   <v>       0.09451237       0.85397280       0.50225706 </v>
   <v>       0.12569388       0.99230616       0.50171895 </v>
   <v>       0.18418216       0.99465263       0.50373090 </v>
   <v>       0.29477201       0.00124052       0.50712811 </v>
   <v>       0.26446478       0.02085594       0.56035979 </v>
   <v>       0.20990769       0.01726986       0.55883714 </v>
   <v>       0.99780938       0.79304231       0.50528487 </v>
   <v>       0.00377878       0.68228642       0.50696331 </v>
   <v>       0.02374448       0.71192131       0.56053011 </v>
   <v>       0.02039277       0.76657806       0.55992557 </v>
   <v>       0.79463644       0.98137101       0.50596529 </v>
   <v>       0.76853078       0.96506521       0.56420955 </v>
   <v>       0.71386661       0.96345699       0.56631331 </v>
   <v>       0.68386573       0.97804772       0.51018396 </v>
   <v>       0.98096855       0.18243809       0.50258853 </v>
   <v>       0.96440208       0.20844749       0.56087217 </v>
   <v>       0.97757392       0.29333856       0.50746554 </v>
   <v>       0.96268671       0.26315682       0.56326748 </v>
   <v>       0.00827304       0.62513506       0.50851970 </v>
   <v>       0.62677089       0.97598847       0.51400274 </v>
   <v>       0.97560535       0.35049634       0.51161139 </v>
   <v>       0.35179848       0.00616603       0.50964357 </v>
   <v>       0.98787472       0.54152232       0.46756520 </v>
   <v>       0.97528157       0.51139412       0.52577881 </v>
   <v>       0.96039985       0.53674989       0.58712309 </v>
   <v>       0.43596760       0.98709883       0.46908461 </v>
   <v>       0.46607514       0.97368651       0.52704524 </v>
   <v>       0.44089374       0.95852288       0.58834599 </v>
   <v>       0.00507361       0.29078436       0.40556463 </v>
   <v>       0.00801931       0.19259809       0.40104024 </v>
   <v>       0.78478299       0.00817887       0.40424583 </v>
   <v>       0.68666386       0.00518095       0.40811720 </v>
   <v>       0.96095356       0.78347153       0.40871744 </v>
   <v>       0.96579884       0.68539661       0.41065065 </v>
   <v>       0.29294732       0.96353577       0.41056860 </v>
   <v>       0.19501352       0.95805830       0.40718101 </v>
   <v>       0.00971008       0.44398659       0.36406105 </v>
   <v>       0.53336970       0.01135434       0.36652305 </v>
   <v>       0.94999062       0.28304832       0.60892225 </v>
   <v>       0.95317769       0.18527871       0.60446850 </v>
   <v>       0.08688990       0.17137979       0.49765122 </v>
   <v>       0.16461863       0.09970037       0.49712144 </v>
   <v>       0.01863242       0.01898667       0.50145126 </v>
   <v>       0.96019341       0.95636626       0.50192782 </v>
   <v>       0.87722499       0.16374011       0.50091189 </v>
   <v>       0.80545966       0.08639143       0.50309374 </v>
   <v>       0.79154521       0.95407562       0.60807289 </v>
   <v>       0.69386574       0.95103499       0.61195270 </v>
   <v>       0.81387815       0.87628779       0.50693993 </v>
   <v>       0.89134438       0.80429615       0.50810779 </v>
   <v>       0.17325144       0.88899285       0.50315080 </v>
   <v>       0.10174671       0.81189620       0.50152023 </v>
   <v>       0.03534455       0.78937085       0.60198015 </v>
   <v>       0.04139938       0.69172810       0.60320917 </v>
   <v>       0.18661388       0.03195008       0.60066641 </v>
   <v>       0.28406337       0.03845515       0.60345243 </v>
   <v>       0.03324152       0.60855726       0.54853122 </v>
   <v>       0.60958729       0.96206210       0.56144187 </v>
   <v>       0.96102945       0.36762760       0.55880881 </v>
   <v>       0.36764270       0.03064376       0.55053757 </v>
   <v>       0.99939934       0.51648930       0.40987392 </v>
   <v>       0.99023474       0.37988394       0.46228046 </v>
   <v>       0.46095551       0.99980499       0.41183624 </v>
   <v>       0.59746420       0.98981737       0.46416129 </v>
   <v>       0.04571633       0.04851303       0.50026979 </v>
   <v>       0.93047040       0.04219987       0.50116985 </v>
   <v>       0.93299409       0.92694567       0.50301138 </v>
   <v>       0.04826228       0.93333054       0.50216118 </v>
   <v>       0.97555845       0.45868435       0.52569217 </v>
   <v>       0.94827685       0.55794319       0.63666074 </v>
   <v>       0.98572037       0.59559542       0.46492492 </v>
   <v>       0.51873717       0.97384080       0.52691806 </v>
   <v>       0.42002191       0.94663865       0.63815545 </v>
   <v>       0.38200699       0.98458188       0.46591226 </v>
  </varray>
 </structure>
 <calculation>
  <scstep>
   <time name="dav">  423.24  427.91</time>
   <time name="total">  423.45  428.12</time>
   <energy>
    <i name="alphaZ">     40.54609092 </i>
    <i name="ewald">  41815.62257042 </i>
    <i name="hartreedc"> -52090.85356991 </i>
    <i name="XCdc">   1164.52384050 </i>
    <i name="pawpsdc">  31543.56010797 </i>
    <i name="pawaedc"> -31603.56417561 </i>
    <i name="eentropy">     -0.00000000 </i>
    <i name="bandstr">  -4256.67371626 </i>
    <i name="atom">  12637.66210555 </i>
    <i name="e_fr_energy">   -749.17674642 </i>
    <i name="e_wo_entrp">   -749.17674642 </i>
    <i name="e_0_energy">   -749.17674642 </i>
   </energy>
  </scstep>
  <scstep>
   <time name="dav">  487.90  493.33</time>
   <time name="total">  487.90  493.33</time>
   <energy>
    <i name="e_fr_energy">   -749.70149582 </i>
    <i name="e_wo_entrp">   -749.70149582 </i>
    <i name="e_0_energy">   -749.70149582 </i>
   </energy>
  </scstep>
  <scstep>
   <time name="dav">  529.96  535.63</time>
   <time name="total">  529.96  535.63</time>
   <energy>
    <i name="e_fr_energy">   -749.71554091 </i>
    <i name="e_wo_entrp">   -749.71554091 </i>
    <i name="e_0_energy">   -749.71554091 </i>
   </energy>
  </scstep>
  <scstep>
   <time name="dav">  480.32  485.73</time>
   <time name="total">  480.32  485.74</time>
   <energy>
    <i name="e_fr_energy">   -749.71579075 </i>
    <i name="e_wo_entrp">   -749.71579075 </i>
    <i name="e_0_energy">   -749.71579075 </i>
   </energy>
  </scstep>
  <scstep>
   <time name="dav">  469.30  474.63</time>
   <time name="total">  469.30  474.63</time>
   <energy>
    <i name="e_fr_energy">   -749.71580244 </i>
    <i name="e_wo_entrp">   -749.71580244 </i>
    <i name="e_0_energy">   -749.71580244 </i>
   </energy>
  </scstep>
  <scstep>
   <time name="dav">  370.61  374.82</time>
   <time name="total">  370.61  374.82</time>
   <energy>
    <i name="alphaZ">     40.54609092 </i>
    <i name="ewald">  41815.62257042 </i>
    <i name="hartreedc"> -52090.85356991 </i>
    <i name="XCdc">   1164.52384050 </i>
    <i name="pawpsdc">  31543.56010797 </i>
    <i name="pawaedc"> -31603.56417561 </i>
    <i name="eentropy">     -0.00000000 </i>
    <i name="bandstr">  -4257.21277261 </i>
    <i name="atom">  12637.66210555 </i>
    <i name="e_fr_energy">   -749.71580277 </i>
    <i name="e_wo_entrp">   -749.71580277 </i>
    <i name="e_0_energy">   -749.71580277 </i>
   </energy>
  </scstep>
  <structure>
   <crystal>
    <varray name="basis" >
     <v>      25.44696122       0.04179417       0.00000000 </v>
     <v>       0.02522003      25.42411374       0.00000000 </v>
     <v>       0.00000000       0.00000000      20.00000000 </v>
    </varray>
    <i name="volume">  12939.30764820 </i>
    <varray name="rec_basis" >
     <v>       0.03929749      -0.00003898       0.00000000 </v>
     <v>      -0.00006460       0.03933280       0.00000000 </v>
     <v>       0.00000000       0.00000000       0.05000000 </v>
    </varray>
   </crystal>
   <varray name="positions" >
    <v>       0.21476183       0.97509126       0.45044416 </v>
    <v>       0.26922119       0.97808632       0.45207911 </v>
    <v>       0.97790865       0.76313050       0.45166683 </v>
    <v>       0.98059676       0.70859391       0.45243377 </v>
    <v>       0.71007885       0.99423816       0.45162644 </v>
    <v>       0.76457946       0.99585766       0.44972180 </v>
    <v>       0.99562637       0.21267655       0.44663267 </v>
    <v>       0.99399010       0.26723732       0.44886485 </v>
    <v>       0.99997244       0.46434703       0.41060102 </v>
    <v>       0.98814946       0.43440852       0.46831192 </v>
    <v>       0.51305032       0.00051631       0.41265992 </v>
    <v>       0.54298302       0.98754721       0.47000916 </v>
    <v>       0.08297965       0.12892515       0.49841614 </v>
    <v>       0.12270288       0.09227408       0.49852080 </v>
    <v>       0.09928909       0.04099900       0.50055156 </v>
    <v>       0.03386476       0.10137216       0.49928517 </v>
    <v>       0.98335464       0.12383601       0.50057697 </v>
    <v>       0.93553843       0.09584708       0.50132105 </v>
    <v>       0.87740686       0.03317026       0.50186453 </v>
    <v>       0.84794275       0.08248247       0.50226775 </v>
    <v>       0.88423172       0.12160757       0.50147425 </v>
    <v>       0.85317336       0.98331532       0.50380826 </v>
    <v>       0.87945066       0.93464400       0.50452579 </v>
    <v>       0.94469862       0.87407522       0.50384801 </v>
    <v>       0.89546544       0.84670030       0.50628039 </v>
    <v>       0.85585573       0.88347627       0.50607502 </v>
    <v>       0.99527935       0.85158236       0.50384118 </v>
    <v>       0.04315313       0.87966410       0.50298779 </v>
    <v>       0.10137951       0.94240536       0.50174687 </v>
    <v>       0.13079200       0.89308265       0.50251745 </v>
    <v>       0.09451237       0.85397280       0.50225706 </v>
    <v>       0.12569388       0.99230616       0.50171895 </v>
    <v>       0.18418216       0.99465263       0.50373090 </v>
    <v>       0.29477201       0.00124052       0.50712811 </v>
    <v>       0.26446478       0.02085594       0.56035979 </v>
    <v>       0.20990769       0.01726986       0.55883714 </v>
    <v>       0.99780938       0.79304231       0.50528487 </v>
    <v>       0.00377878       0.68228642       0.50696331 </v>
    <v>       0.02374448       0.71192131       0.56053011 </v>
    <v>       0.02039277       0.76657806       0.55992557 </v>
    <v>       0.79463644       0.98137101       0.50596529 </v>
    <v>       0.76853078       0.96506521       0.56420955 </v>
    <v>       0.71386661       0.96345699       0.56631331 </v>
    <v>       0.68386573       0.97804772       0.51018396 </v>
    <v>       0.98096855       0.18243809       0.50258853 </v>
    <v>       0.96440208       0.20844749       0.56087217 </v>
    <v>       0.97757392       0.29333856       0.50746554 </v>
    <v>       0.96268671       0.26315682       0.56326748 </v>
    <v>       0.00827304       0.62513506       0.50851970 </v>
    <v>       0.62677089       0.97598847       0.51400274 </v>
    <v>       0.97560535       0.35049634       0.51161139 </v>
    <v>       0.35179848       0.00616603       0.50964357 </v>
    <v>       0.98787472       0.54152232       0.46756520 </v>
    <v>       0.97528157       0.51139412       0.52577881 </v>
    <v>       0.96039985       0.53674989       0.58712309 </v>
    <v>       0.43596760       0.98709883       0.46908461 </v>
    <v>       0.46607514       0.97368651       0.52704524 </v>
    <v>       0.44089374       0.95852288       0.58834599 </v>
    <v>       0.00507361       0.29078436       0.40556463 </v>
    <v>       0.00801931       0.19259809       0.40104024 </v>
    <v>       0.78478299       0.00817887       0.40424583 </v>
    <v>       0.68666386       0.00518095       0.40811720 </v>
    <v>       0.96095356       0.78347153       0.40871744 </v>
    <v>       0.96579884       0.68539661       0.41065065 </v>
    <v>       0.29294732       0.96353577       0.41056860 </v>
    <v>       0.19501352       0.95805830       0.40718101 </v>
    <v>       0.00971008       0.44398659       0.36406105 </v>
    <v>       0.53336970       0.01135434       0.36652305 </v>
    <v>       0.94999062       0.28304832       0.60892225 </v>
    <v>       0.95317769       0.18527871       0.60446850 </v>
    <v>       0.08688990       0.17137979       0.49765122 </v>
    <v>       0.16461863       0.09970037       0.49712144 </v>
    <v>       0.01863242       0.01898667       0.50145126 </v>
    <v>       0.96019341       0.95636626       0.50192782 </v>
    <v>       0.87722499       0.16374011       0.50091189 </v>
    <v>       0.80545966       0.08639143       0.50309374 </v>
    <v>       0.79154521       0.95407562       0.60807289 </v>
    <v>       0.69386574       0.95103499       0.61195270 </v>
    <v>       0.81387815       0.87628779       0.50693993 </v>
    <v>       0.89134438       0.80429615       0.50810779 </v>
    <v>       0.17325144       0.88899285       0.50315080 </v>
    <v>       0.10174671       0.81189620       0.50152023 </v>
    <v>       0.03534455       0.78937085       0.60198015 </v>
    <v>       0.04139938       0.69172810       0.60320917 </v>
    <v>       0.18661388       0.03195008       0.60066641 </v>
    <v>       0.28406337       0.03845515       0.60345243 </v>
    <v>       0.03324152       0.60855726       0.54853122 </v>
    <v>       0.60958729       0.96206210       0.56144187 </v>
    <v>       0.96102945       0.36762760       0.55880881 </v>
    <v>       0.36764270       0.03064376       0.55053757 </v>
    <v>       0.99939934       0.51648930       0.40987392 </v>
    <v>       0.99023474       0.37988394       0.46228046 </v>
    <v>       0.46095551       0.99980499       0.41183624 </v>
    <v>       0.59746420       0.98981737       0.46416129 </v>
    <v>       0.04571633       0.04851303       0.50026979 </v>
    <v>       0.93047040       0.04219987       0.50116985 </v>
    <v>       0.93299409       0.92694567       0.50301138 </v>
    <v>       0.04826228       0.93333054       0.50216118 </v>
    <v>       0.97555845       0.45868435       0.52569217 </v>
    <v>       0.94827685       0.55794319       0.63666074 </v>
    <v>       0.98572037       0.59559542       0.46492492 </v>
    <v>       0.51873717       0.97384080       0.52691806 </v>
    <v>       0.42002191       0.94663865       0.63815545 </v>
    <v>       0.38200699       0.98458188       0.46591226 </v>
   </varray>
  </structure>
  <varray name="forces" >
   <v>       0.01137676      -0.01058142      -0.00066193 </v>
   <v>      -0.01016365      -0.00348041      -0.00309882 </v>
   <v>      -0.00477299      -0.00551545      -0.00045839 </v>
   <v>      -0.00038963       0.00427760      -0.00086855 </v>
   <v>       0.01043515       0.00405397      -0.00387412 </v>
   <v>      -0.01151217       0.01536793       0.00029408 </v>
   <v>       0.00784789       0.00671083       0.00133692 </v>
   <v>       0.00257599      -0.00539353      -0.00217610 </v>
   <v>      -0.00048958       0.00648444      -0.00111636 </v>
   <v>       0.00218942      -0.01098119      -0.00361884 </v>
   <v>      -0.00938224      -0.00061666      -0.00418161 </v>
   <v>       0.02104516       0.00523865      -0.01120642 </v>
   <v>      -0.00557858       0.00123674       0.00174551 </v>
   <v>      -0.00086377      -0.00322473      -0.00019145 </v>
   <v>      -0.00508961       0.01298049       0.00846613 </v>
   <v>       0.00937417      -0.00138039      -0.00685277 </v>
   <v>      -0.00403981       0.00961733       0.00076929 </v>
   <v>      -0.00509377       0.00425668       0.00877850 </v>
   <v>      -0.00000647       0.00586548      -0.01431373 </v>
   <v>      -0.00003893      -0.00161532       0.00122006 </v>
   <v>       0.00261026       0.00037093      -0.00020656 </v>
   <v>      -0.02027897       0.00000704       0.00064086 </v>
   <v>       0.00773007      -0.01501049       0.01136911 </v>
   <v>      -0.01090679       0.00654033      -0.00613597 </v>
   <v>       0.00531771      -0.00001077       0.00143341 </v>
   <v>      -0.00045977       0.00705023      -0.00135958 </v>
   <v>       0.00447312      -0.01020644       0.00001858 </v>
   <v>       0.00411095      -0.00612760       0.00705726 </v>
   <v>      -0.00154076      -0.00897178      -0.00906171 </v>
   <v>      -0.00073901       0.00339339       0.00104185 </v>
   <v>      -0.00055558      -0.00009438       0.00101301 </v>
   <v>       0.01900032      -0.00463420       0.00320686 </v>
   <v>      -0.01922514      -0.00055934       0.00234743 </v>
   <v>       0.01933038       0.00386367       0.00012271 </v>
   <v>      -0.00925905       0.00385533       0.00579037 </v>
   <v>       0.00967200       0.01210927       0.00138986 </v>
   <v>       0.00131260       0.00836799       0.00207904 </v>
   <v>       0.00165494      -0.01073708      -0.00001600 </v>
   <v>       0.00223007       0.00430033       0.00330997 </v>
   <v>       0.00697205      -0.00489713       0.00227123 </v>
   <v>       0.02027872       0.00226572      -0.00093949 </v>
   <v>      -0.00967640      -0.01699053       0.00157551 </v>
   <v>       0.00936089      -0.00370547       0.00350997 </v>
   <v>      -0.02248579      -0.00165347       0.00128195 </v>
   <v>      -0.00067102      -0.00962465      -0.00116374 </v>
   <v>      -0.00902541       0.00372613       0.00083974 </v>
   <v>      -0.00082873       0.01299590      -0.00002154 </v>
   <v>      -0.00242639      -0.00298399       0.00233825 </v>
   <v>      -0.00044094       0.00984116       0.00737888 </v>
   <v>       0.02044374      -0.00503572       0.01290876 </v>
   <v>      -0.00236031      -0.01175114       0.00476494 </v>
   <v>      -0.01628135       0.00053695       0.01437911 </v>
   <v>      -0.00039937       0.00854704      -0.00189314 </v>
   <v>       0.00248086      -0.00329661       0.00052577 </v>
   <v>       0.00200246      -0.00263029      -0.00509054 </v>
   <v>      -0.01764345       0.00056345      -0.00046243 </v>
   <v>       0.01185877       0.00716401       0.00291307 </v>
   <v>      -0.00061099      -0.00051862       0.00236707 </v>
   <v>       0.00070237       0.00073665       0.00106354 </v>
   <v>       0.00173193      -0.00065746      -0.00031030 </v>
   <v>       0.00033219       0.00332066       0.00088282 </v>
   <v>       0.00003137      -0.00003684       0.00002109 </v>
   <v>       0.00039685       0.00028526       0.00045563 </v>
   <v>       0.00127689      -0.00051293      -0.00048660 </v>
   <v>       0.00091875       0.00036231      -0.00118424 </v>
   <v>       0.00012909       0.00034852      -0.00034939 </v>
   <v>      -0.00058776      -0.00221563      -0.00433598 </v>
   <v>      -0.00041864       0.00020510      -0.00063168 </v>
   <v>      -0.00044473       0.00142774      -0.00022830 </v>
   <v>      -0.00265594       0.00019710       0.00004277 </v>
   <v>      -0.00027454      -0.00081446       0.00058253 </v>
   <v>      -0.00011534       0.00019437       0.00012539 </v>
   <v>      -0.00164526      -0.00141977       0.00119648 </v>
   <v>      -0.00116401      -0.00124867      -0.00552744 </v>
   <v>      -0.00012020      -0.00076638       0.00031846 </v>
   <v>      -0.00049398       0.00018995       0.00323384 </v>
   <v>       0.00055512      -0.00162229       0.00149241 </v>
   <v>       0.00028424      -0.00066980       0.00041172 </v>
   <v>      -0.00089965      -0.00072873       0.00099773 </v>
   <v>       0.00043362      -0.00337841       0.00437709 </v>
   <v>      -0.00038180      -0.00012181      -0.00002899 </v>
   <v>      -0.00020360       0.00124688       0.00094051 </v>
   <v>       0.00026308      -0.00162197       0.00097696 </v>
   <v>      -0.00052176      -0.00096479      -0.00013504 </v>
   <v>       0.00063441      -0.00031444       0.00053081 </v>
   <v>      -0.00148699      -0.00173710      -0.00001037 </v>
   <v>      -0.00238546      -0.00159567       0.00061239 </v>
   <v>       0.00138397       0.00013768      -0.00489389 </v>
   <v>      -0.00084733       0.00115143      -0.00235523 </v>
   <v>      -0.00084240      -0.00296560      -0.00096400 </v>
   <v>      -0.00368914      -0.00339420      -0.00201164 </v>
   <v>       0.00129273       0.01073107      -0.00611786 </v>
   <v>       0.00970974      -0.00398891      -0.00401907 </v>
   <v>      -0.02111010       0.00072286      -0.00860543 </v>
   <v>       0.00360567       0.00306159       0.00057922 </v>
   <v>      -0.00244927      -0.00349508      -0.00119772 </v>
   <v>      -0.00262952      -0.00298348       0.00007888 </v>
   <v>       0.00228364       0.00949738      -0.00064310 </v>
   <v>      -0.00299404       0.00708072       0.00117266 </v>
   <v>       0.00398862      -0.00093588       0.00262252 </v>
   <v>       0.00179174      -0.01325719      -0.00979634 </v>
   <v>      -0.01415299      -0.00626398       0.00867870 </v>
   <v>       0.00027547       0.00162252      -0.00280058 </v>
   <v>       0.01804496       0.00583147      -0.01627623 </v>
  </varray>
  <varray name="stress" >
   <v>      -0.02548603      -0.00315811      -0.00872841 </v>
   <v>      -0.00315811      -0.00437973      -0.00853776 </v>
   <v>      -0.00872841      -0.00853776      -0.14813285 </v>
  </varray>
  <energy>
   <i name="e_fr_energy">   -751.93380017 </i>
   <i name="e_wo_entrp">   -751.93380017 </i>
   <i name="e_0_energy">     -0.00000000 </i>
  </energy>
  <time name="totalsc"> 3258.40 3295.99</time>
  <eigenvalues>
   <array>
    <dimension dim="1">band</dimension>
    <dimension dim="2">kpoint</dimension>
    <dimension dim="3">spin</dimension>
    <field>eigene</field>
    <field>occ</field>
    <set>
     <set comment="spin 1">
      <set comment="kpoint 1">
       <r>  -25.0715    1.0000 </r>
       <r>  -25.0699    1.0000 </r>
       <r>  -24.6810    1.0000 </r>
       <r>  -24.6453    1.0000 </r>
       <r>  -23.9118    1.0000 </r>
       <r>  -23.9112    1.0000 </r>
       <r>  -23.4286    1.0000 </r>
       <r>  -23.3592    1.0000 </r>
       <r>  -22.9944    1.0000 </r>
       <r>  -22.9897    1.0000 </r>
       <r>  -22.6720    1.0000 </r>
       <r>  -22.6676    1.0000 </r>
       <r>  -22.1593    1.0000 </r>
       <r>  -22.1569    1.0000 </r>
       <r>  -21.6951    1.0000 </r>
       <r>  -21.6252    1.0000 </r>
       <r>  -21.6139    1.0000 </r>
       <r>  -21.5491    1.0000 </r>
       <r>  -20.5759    1.0000 </r>
       <r>  -20.3160    1.0000 </r>
       <r>  -20.2558    1.0000 </r>
       <r>  -19.9141    1.0000 </r>
       <r>  -19.5359    1.0000 </r>
       <r>  -19.4990    1.0000 </r>
       <r>  -19.4326    1.0000 </r>
       <r>  -19.4186    1.0000 </r>
       <r>  -18.9162    1.0000 </r>
       <r>  -18.7591    1.0000 </r>
       <r>  -18.6596    1.0000 </r>
       <r>  -18.6515    1.0000 </r>
       <r>  -18.6154    1.0000 </r>
       <r>  -18.5859    1.0000 </r>
       <r>  -18.5392    1.0000 </r>
       <r>  -18.3012    1.0000 </r>
       <r>  -18.2560    1.0000 </r>
       <r>  -18.1907    1.0000 </r>
       <r>  -17.7997    1.0000 </r>
       <r>  -17.3144    1.0000 </r>
       <r>  -17.3020    1.0000 </r>
       <r>  -17.0976    1.0000 </r>
       <r>  -16.7849    1.0000 </r>
       <r>  -16.6160    1.0000 </r>
       <r>  -16.4223    1.0000 </r>
       <r>  -15.6574    1.0000 </r>
       <r>  -15.6218    1.0000 </r>
       <r>  -15.6066    1.0000 </r>
       <r>  -15.3452    1.0000 </r>
       <r>  -15.1893    1.0000 </r>
       <r>  -15.1263    1.0000 </r>
       <r>  -15.1228    1.0000 </r>
       <r>  -15.0197    1.0000 </r>
       <r>  -14.7510    1.0000 </r>
       <r>  -14.6222    1.0000 </r>
       <r>  -14.5481    1.0000 </r>
       <r>  -14.4567    1.0000 </r>
       <r>  -14.3933    1.0000 </r>
       <r>  -14.2628    1.0000 </r>
       <r>  -14.2056    1.0000 </r>
       <r>  -14.1887    1.0000 </r>
       <r>  -13.9843    1.0000 </r>
       <r>  -13.7846    1.0000 </r>
       <r>  -13.6386    1.0000 </r>
       <r>  -13.6339    1.0000 </r>
       <r>  -13.4867    1.0000 </r>
       <r>  -13.3797    1.0000 </r>
       <r>  -13.3274    1.0000 </r>
       <r>  -13.2437    1.0000 </r>
       <r>  -12.9639    1.0000 </r>
       <r>  -12.9141    1.0000 </r>
       <r>  -12.7724    1.0000 </r>
       <r>  -12.6242    1.0000 </r>
       <r>  -12.4857    1.0000 </r>
       <r>  -12.3182    1.0000 </r>
       <r>  -12.2732    1.0000 </r>
       <r>  -12.1857    1.0000 </r>
       <r>  -12.1595    1.0000 </r>
       <r>  -12.0519    1.0000 </r>
       <r>  -11.9882    1.0000 </r>
       <r>  -11.6098    1.0000 </r>
       <r>  -11.4143    1.0000 </r>
       <r>  -11.2879    1.0000 </r>
       <r>  -11.2271    1.0000 </r>
       <r>  -11.1378    1.0000 </r>
       <r>  -11.1007    1.0000 </r>
       <r>  -11.0392    1.0000 </r>
       <r>  -11.0037    1.0000 </r>
       <r>  -10.9675    1.0000 </r>
       <r>  -10.9235    1.0000 </r>
       <r>  -10.8784    1.0000 </r>
       <r>  -10.8397    1.0000 </r>
       <r>  -10.8135    1.0000 </r>
       <r>  -10.6816    1.0000 </r>
       <r>  -10.6390    1.0000 </r>
       <r>  -10.5084    1.0000 </r>
       <r>  -10.4749    1.0000 </r>
       <r>  -10.4232    1.0000 </r>
       <r>  -10.3636    1.0000 </r>
       <r>  -10.3063    1.0000 </r>
       <r>  -10.3019    1.0000 </r>
       <r>  -10.2926    1.0000 </r>
       <r>  -10.2666    1.0000 </r>
       <r>  -10.2203    1.0000 </r>
       <r>  -10.2026    1.0000 </r>
       <r>  -10.1392    1.0000 </r>
       <r>  -10.0700    1.0000 </r>
       <r>   -9.8832    1.0000 </r>
       <r>   -9.8346    1.0000 </r>
       <r>   -9.7656    1.0000 </r>
       <r>   -9.7221    1.0000 </r>
       <r>   -9.6299    1.0000 </r>
       <r>   -9.5978    1.0000 </r>
       <r>   -9.5613    1.0000 </r>
       <r>   -9.5304    1.0000 </r>
       <r>   -9.5006    1.0000 </r>
       <r>   -9.2149    1.0000 </r>
       <r>   -9.1567    1.0000 </r>
       <r>   -9.0121    1.0000 </r>
       <r>   -9.0062    1.0000 </r>
       <r>   -8.9698    1.0000 </r>
       <r>   -8.9151    1.0000 </r>
       <r>   -8.7757    1.0000 </r>
       <r>   -8.7613    1.0000 </r>
       <r>   -8.6241    1.0000 </r>
       <r>   -8.5744    1.0000 </r>
       <r>   -8.5065    1.0000 </r>
       <r>   -8.4604    1.0000 </r>
       <r>   -8.4208    1.0000 </r>
       <r>   -8.4105    1.0000 </r>
       <r>   -8.3963    1.0000 </r>
       <r>   -8.3775    1.0000 </r>
       <r>   -8.3381    1.0000 </r>
       <r>   -8.3224    1.0000 </r>
       <r>   -8.3130    1.0000 </r>
       <r>   -8.2973    1.0000 </r>
       <r>   -8.1557    1.0000 </r>
       <r>   -8.1303    1.0000 </r>
       <r>   -7.8883    1.0000 </r>
       <r>   -7.7437    1.0000 </r>
       <r>   -7.7025    1.0000 </r>
       <r>   -7.3073    1.0000 </r>
       <r>   -7.2980    1.0000 </r>
       <r>   -7.1524    1.0000 </r>
       <r>   -7.1297    1.0000 </r>
       <r>   -7.0911    1.0000 </r>
       <r>   -6.9452    1.0000 </r>
       <r>   -6.5959    1.0000 </r>
       <r>   -6.5723    1.0000 </r>
       <r>   -6.5491    1.0000 </r>
       <r>   -6.5355    1.0000 </r>
       <r>   -6.5091    1.0000 </r>
       <r>   -6.4964    1.0000 </r>
       <r>   -6.4588    1.0000 </r>
       <r>   -6.4221    1.0000 </r>
       <r>   -6.3101    1.0000 </r>
       <r>   -6.2724    1.0000 </r>
       <r>   -6.2278    1.0000 </r>
       <r>   -6.2193    1.0000 </r>
       <r>   -6.1973    1.0000 </r>
       <r>   -6.1706    1.0000 </r>
       <r>   -5.8687    1.0000 </r>
       <r>   -5.8216    1.0000 </r>
       <r>   -5.8052    1.0000 </r>
       <r>   -5.7310    1.0000 </r>
       <r>   -5.5296    1.0000 </r>
       <r>   -5.4990    1.0000 </r>
       <r>   -5.1631    1.0000 </r>
       <r>   -4.7948    1.0000 </r>
       <r>   -3.3033    0.0000 </r>
       <r>   -3.2756    0.0000 </r>
       <r>   -2.9796    0.0000 </r>
       <r>   -2.9590    0.0000 </r>
       <r>   -2.8043    0.0000 </r>
       <r>   -2.7693    0.0000 </r>
       <r>   -2.4339    0.0000 </r>
       <r>   -2.3668    0.0000 </r>
       <r>   -1.7013    0.0000 </r>
       <r>   -1.4078    0.0000 </r>
       <r>   -1.3975    0.0000 </r>
       <r>   -1.3715    0.0000 </r>
       <r>   -1.3599    0.0000 </r>
       <r>   -1.2427    0.0000 </r>
       <r>   -1.2353    0.0000 </r>
       <r>   -0.5038    0.0000 </r>
       <r>   -0.4626    0.0000 </r>
       <r>   -0.3476    0.0000 </r>
       <r>   -0.3307    0.0000 </r>
       <r>   -0.2620    0.0000 </r>
       <r>   -0.1991    0.0000 </r>
       <r>   -0.1744    0.0000 </r>
       <r>   -0.0820    0.0000 </r>
       <r>   -0.0498    0.0000 </r>
       <r>   -0.0318    0.0000 </r>
       <r>    0.0217    0.0000 </r>
       <r>    0.0764    0.0000 </r>
       <r>    0.1042    0.0000 </r>
       <r>    0.1993    0.0000 </r>
       <r>    0.2454    0.0000 </r>
       <r>    0.2720    0.0000 </r>
       <r>    0.3257    0.0000 </r>
       <r>    0.3687    0.0000 </r>
       <r>    0.3945    0.0000 </r>
       <r>    0.4399    0.0000 </r>
       <r>    0.4618    0.0000 </r>
       <r>    0.4780    0.0000 </r>
       <r>    0.5123    0.0000 </r>
       <r>    0.5313    0.0000 </r>
       <r>    0.5913    0.0000 </r>
       <r>    0.5989    0.0000 </r>
       <r>    0.6319    0.0000 </r>
       <r>    0.6551    0.0000 </r>
       <r>    0.7010    0.0000 </r>
       <r>    0.7159    0.0000 </r>
       <r>    0.7240    0.0000 </r>
       <r>    0.7654    0.0000 </r>
       <r>    0.8311    0.0000 </r>
       <r>    0.8484    0.0000 </r>
       <r>    0.8500    0.0000 </r>
       <r>    0.8784    0.0000 </r>
       <r>    0.8952    0.0000 </r>
       <r>    0.9151    0.0000 </r>
       <r>    0.9252    0.0000 </r>
       <r>    0.9572    0.0000 </r>
       <r>    0.9867    0.0000 </r>
       <r>    1.0000    0.0000 </r>
      </set>
      <set comment="kpoint 2">
       <r>  -25.0715    1.0000 </r>
       <r>  -25.0699    1.0000 </r>
       <r>  -24.6810    1.0000 </r>
       <r>  -24.6453    1.0000 </r>
       <r>  -23.9118    1.0000 </r>
       <r>  -23.9112    1.0000 </r>
       <r>  -23.4286    1.0000 </r>
       <r>  -23.3592    1.0000 </r>
       <r>  -22.9944    1.0000 </r>
       <r>  -22.9896    1.0000 </r>
       <r>  -22.6720    1.0000 </r>
       <r>  -22.6676    1.0000 </r>
       <r>  -22.1593    1.0000 </r>
       <r>  -22.1569    1.0000 </r>
       <r>  -21.6951    1.0000 </r>
       <r>  -21.6252    1.0000 </r>
       <r>  -21.6138    1.0000 </r>
       <r>  -21.5491    1.0000 </r>
       <r>  -20.5761    1.0000 </r>
       <r>  -20.3158    1.0000 </r>
       <r>  -20.2555    1.0000 </r>
       <r>  -19.9146    1.0000 </r>
       <r>  -19.5359    1.0000 </r>
       <r>  -19.4993    1.0000 </r>
       <r>  -19.4347    1.0000 </r>
       <r>  -19.4159    1.0000 </r>
       <r>  -18.9159    1.0000 </r>
       <r>  -18.7590    1.0000 </r>
       <r>  -18.6596    1.0000 </r>
       <r>  -18.6515    1.0000 </r>
       <r>  -18.6154    1.0000 </r>
       <r>  -18.5859    1.0000 </r>
       <r>  -18.5392    1.0000 </r>
       <r>  -18.3036    1.0000 </r>
       <r>  -18.2582    1.0000 </r>
       <r>  -18.1864    1.0000 </r>
       <r>  -17.7996    1.0000 </r>
       <r>  -17.3144    1.0000 </r>
       <r>  -17.3020    1.0000 </r>
       <r>  -17.0978    1.0000 </r>
       <r>  -16.7868    1.0000 </r>
       <r>  -16.6143    1.0000 </r>
       <r>  -16.4215    1.0000 </r>
       <r>  -15.6622    1.0000 </r>
       <r>  -15.6245    1.0000 </r>
       <r>  -15.5996    1.0000 </r>
       <r>  -15.3452    1.0000 </r>
       <r>  -15.1895    1.0000 </r>
       <r>  -15.1261    1.0000 </r>
       <r>  -15.1227    1.0000 </r>
       <r>  -15.0197    1.0000 </r>
       <r>  -14.7510    1.0000 </r>
       <r>  -14.6222    1.0000 </r>
       <r>  -14.5481    1.0000 </r>
       <r>  -14.4567    1.0000 </r>
       <r>  -14.3934    1.0000 </r>
       <r>  -14.2627    1.0000 </r>
       <r>  -14.2056    1.0000 </r>
       <r>  -14.1886    1.0000 </r>
       <r>  -13.9844    1.0000 </r>
       <r>  -13.7845    1.0000 </r>
       <r>  -13.6386    1.0000 </r>
       <r>  -13.6339    1.0000 </r>
       <r>  -13.4867    1.0000 </r>
       <r>  -13.3797    1.0000 </r>
       <r>  -13.3273    1.0000 </r>
       <r>  -13.2438    1.0000 </r>
       <r>  -12.9636    1.0000 </r>
       <r>  -12.9141    1.0000 </r>
       <r>  -12.7726    1.0000 </r>
       <r>  -12.6240    1.0000 </r>
       <r>  -12.4859    1.0000 </r>
       <r>  -12.3181    1.0000 </r>
       <r>  -12.2733    1.0000 </r>
       <r>  -12.1856    1.0000 </r>
       <r>  -12.1595    1.0000 </r>
       <r>  -12.0521    1.0000 </r>
       <r>  -11.9879    1.0000 </r>
       <r>  -11.6097    1.0000 </r>
       <r>  -11.4143    1.0000 </r>
       <r>  -11.2879    1.0000 </r>
       <r>  -11.2271    1.0000 </r>
       <r>  -11.1378    1.0000 </r>
       <r>  -11.1008    1.0000 </r>
       <r>  -11.0393    1.0000 </r>
       <r>  -11.0036    1.0000 </r>
       <r>  -10.9676    1.0000 </r>
       <r>  -10.9235    1.0000 </r>
       <r>  -10.8785    1.0000 </r>
       <r>  -10.8397    1.0000 </r>
       <r>  -10.8135    1.0000 </r>
       <r>  -10.6815    1.0000 </r>
       <r>  -10.6388    1.0000 </r>
       <r>  -10.5086    1.0000 </r>
       <r>  -10.4749    1.0000 </r>
       <r>  -10.4232    1.0000 </r>
       <r>  -10.3635    1.0000 </r>
       <r>  -10.3063    1.0000 </r>
       <r>  -10.3019    1.0000 </r>
       <r>  -10.2926    1.0000 </r>
       <r>  -10.2666    1.0000 </r>
       <r>  -10.2204    1.0000 </r>
       <r>  -10.2025    1.0000 </r>
       <r>  -10.1392    1.0000 </r>
       <r>  -10.0698    1.0000 </r>
       <r>   -9.8837    1.0000 </r>
       <r>   -9.8342    1.0000 </r>
       <r>   -9.7654    1.0000 </r>
       <r>   -9.7221    1.0000 </r>
       <r>   -9.6299    1.0000 </r>
       <r>   -9.5979    1.0000 </r>
       <r>   -9.5614    1.0000 </r>
       <r>   -9.5307    1.0000 </r>
       <r>   -9.5006    1.0000 </r>
       <r>   -9.2144    1.0000 </r>
       <r>   -9.1566    1.0000 </r>
       <r>   -9.0121    1.0000 </r>
       <r>   -9.0063    1.0000 </r>
       <r>   -8.9698    1.0000 </r>
       <r>   -8.9154    1.0000 </r>
       <r>   -8.7759    1.0000 </r>
       <r>   -8.7610    1.0000 </r>
       <r>   -8.6242    1.0000 </r>
       <r>   -8.5748    1.0000 </r>
       <r>   -8.5064    1.0000 </r>
       <r>   -8.4604    1.0000 </r>
       <r>   -8.4207    1.0000 </r>
       <r>   -8.4105    1.0000 </r>
       <r>   -8.3963    1.0000 </r>
       <r>   -8.3774    1.0000 </r>
       <r>   -8.3381    1.0000 </r>
       <r>   -8.3225    1.0000 </r>
       <r>   -8.3129    1.0000 </r>
       <r>   -8.2973    1.0000 </r>
       <r>   -8.1557    1.0000 </r>
       <r>   -8.1303    1.0000 </r>
       <r>   -7.8881    1.0000 </r>
       <r>   -7.7437    1.0000 </r>
       <r>   -7.7026    1.0000 </r>
       <r>   -7.3073    1.0000 </r>
       <r>   -7.2981    1.0000 </r>
       <r>   -7.1529    1.0000 </r>
       <r>   -7.1300    1.0000 </r>
       <r>   -7.0904    1.0000 </r>
       <r>   -6.9448    1.0000 </r>
       <r>   -6.5959    1.0000 </r>
       <r>   -6.5722    1.0000 </r>
       <r>   -6.5491    1.0000 </r>
       <r>   -6.5355    1.0000 </r>
       <r>   -6.5090    1.0000 </r>
       <r>   -6.4963    1.0000 </r>
       <r>   -6.4588    1.0000 </r>
       <r>   -6.4221    1.0000 </r>
       <r>   -6.3103    1.0000 </r>
       <r>   -6.2725    1.0000 </r>
       <r>   -6.2278    1.0000 </r>
       <r>   -6.2194    1.0000 </r>
       <r>   -6.1973    1.0000 </r>
       <r>   -6.1706    1.0000 </r>
       <r>   -5.8686    1.0000 </r>
       <r>   -5.8216    1.0000 </r>
       <r>   -5.8052    1.0000 </r>
       <r>   -5.7310    1.0000 </r>
       <r>   -5.5295    1.0000 </r>
       <r>   -5.4989    1.0000 </r>
       <r>   -5.1631    1.0000 </r>
       <r>   -4.7949    1.0000 </r>
       <r>   -3.3031    0.0000 </r>
       <r>   -3.2754    0.0000 </r>
       <r>   -2.9799    0.0000 </r>
       <r>   -2.9593    0.0000 </r>
       <r>   -2.8042    0.0000 </r>
       <r>   -2.7693    0.0000 </r>
       <r>   -2.4336    0.0000 </r>
       <r>   -2.3668    0.0000 </r>
       <r>   -1.7014    0.0000 </r>
       <r>   -1.4079    0.0000 </r>
       <r>   -1.3975    0.0000 </r>
       <r>   -1.3715    0.0000 </r>
       <r>   -1.3598    0.0000 </r>
       <r>   -1.2427    0.0000 </r>
       <r>   -1.2354    0.0000 </r>
       <r>   -0.5037    0.0000 </r>
       <r>   -0.4626    0.0000 </r>
       <r>   -0.3476    0.0000 </r>
       <r>   -0.3308    0.0000 </r>
       <r>   -0.2621    0.0000 </r>
       <r>   -0.1991    0.0000 </r>
       <r>   -0.1743    0.0000 </r>
       <r>   -0.0823    0.0000 </r>
       <r>   -0.0496    0.0000 </r>
       <r>   -0.0318    0.0000 </r>
       <r>    0.0218    0.0000 </r>
       <r>    0.0765    0.0000 </r>
       <r>    0.1045    0.0000 </r>
       <r>    0.1993    0.0000 </r>
       <r>    0.2452    0.0000 </r>
       <r>    0.2719    0.0000 </r>
       <r>    0.3256    0.0000 </r>
       <r>    0.3687    0.0000 </r>
       <r>    0.3945    0.0000 </r>
       <r>    0.4397    0.0000 </r>
       <r>    0.4611    0.0000 </r>
       <r>    0.4780    0.0000 </r>
       <r>    0.5127    0.0000 </r>
       <r>    0.5315    0.0000 </r>
       <r>    0.5900    0.0000 </r>
       <r>    0.5998    0.0000 </r>
       <r>    0.6321    0.0000 </r>
       <r>    0.6562    0.0000 </r>
       <r>    0.7009    0.0000 </r>
       <r>    0.7160    0.0000 </r>
       <r>    0.7239    0.0000 </r>
       <r>    0.7656    0.0000 </r>
       <r>    0.8312    0.0000 </r>
       <r>    0.8471    0.0000 </r>
       <r>    0.8504    0.0000 </r>
       <r>    0.8789    0.0000 </r>
       <r>    0.8950    0.0000 </r>
       <r>    0.9142    0.0000 </r>
       <r>    0.9264    0.0000 </r>
       <r>    0.9562    0.0000 </r>
       <r>    0.9855    0.0000 </r>
       <r>    1.0018    0.0000 </r>
      </set>
      <set comment="kpoint 3">
       <r>  -25.0715    1.0000 </r>
       <r>  -25.0699    1.0000 </r>
       <r>  -24.6810    1.0000 </r>
       <r>  -24.6453    1.0000 </r>
       <r>  -23.9118    1.0000 </r>
       <r>  -23.9112    1.0000 </r>
       <r>  -23.4286    1.0000 </r>
       <r>  -23.3592    1.0000 </r>
       <r>  -22.9944    1.0000 </r>
       <r>  -22.9896    1.0000 </r>
       <r>  -22.6720    1.0000 </r>
       <r>  -22.6676    1.0000 </r>
       <r>  -22.1593    1.0000 </r>
       <r>  -22.1569    1.0000 </r>
       <r>  -21.6952    1.0000 </r>
       <r>  -21.6251    1.0000 </r>
       <r>  -21.6137    1.0000 </r>
       <r>  -21.5492    1.0000 </r>
       <r>  -20.5767    1.0000 </r>
       <r>  -20.3151    1.0000 </r>
       <r>  -20.2547    1.0000 </r>
       <r>  -19.9159    1.0000 </r>
       <r>  -19.5359    1.0000 </r>
       <r>  -19.5003    1.0000 </r>
       <r>  -19.4388    1.0000 </r>
       <r>  -19.4103    1.0000 </r>
       <r>  -18.9151    1.0000 </r>
       <r>  -18.7588    1.0000 </r>
       <r>  -18.6596    1.0000 </r>
       <r>  -18.6514    1.0000 </r>
       <r>  -18.6154    1.0000 </r>
       <r>  -18.5859    1.0000 </r>
       <r>  -18.5392    1.0000 </r>
       <r>  -18.3106    1.0000 </r>
       <r>  -18.2627    1.0000 </r>
       <r>  -18.1755    1.0000 </r>
       <r>  -17.7995    1.0000 </r>
       <r>  -17.3143    1.0000 </r>
       <r>  -17.3020    1.0000 </r>
       <r>  -17.0983    1.0000 </r>
       <r>  -16.7924    1.0000 </r>
       <r>  -16.6096    1.0000 </r>
       <r>  -16.4193    1.0000 </r>
       <r>  -15.6743    1.0000 </r>
       <r>  -15.6270    1.0000 </r>
       <r>  -15.5865    1.0000 </r>
       <r>  -15.3452    1.0000 </r>
       <r>  -15.1902    1.0000 </r>
       <r>  -15.1258    1.0000 </r>
       <r>  -15.1221    1.0000 </r>
       <r>  -15.0199    1.0000 </r>
       <r>  -14.7510    1.0000 </r>
       <r>  -14.6223    1.0000 </r>
       <r>  -14.5481    1.0000 </r>
       <r>  -14.4567    1.0000 </r>
       <r>  -14.3937    1.0000 </r>
       <r>  -14.2626    1.0000 </r>
       <r>  -14.2058    1.0000 </r>
       <r>  -14.1884    1.0000 </r>
       <r>  -13.9848    1.0000 </r>
       <r>  -13.7844    1.0000 </r>
       <r>  -13.6386    1.0000 </r>
       <r>  -13.6339    1.0000 </r>
       <r>  -13.4869    1.0000 </r>
       <r>  -13.3796    1.0000 </r>
       <r>  -13.3269    1.0000 </r>
       <r>  -13.2442    1.0000 </r>
       <r>  -12.9628    1.0000 </r>
       <r>  -12.9140    1.0000 </r>
       <r>  -12.7730    1.0000 </r>
       <r>  -12.6237    1.0000 </r>
       <r>  -12.4865    1.0000 </r>
       <r>  -12.3180    1.0000 </r>
       <r>  -12.2735    1.0000 </r>
       <r>  -12.1856    1.0000 </r>
       <r>  -12.1597    1.0000 </r>
[...]
       <r>   -22.4528     0.0000    24.0000 </r>
       <r>   -22.3571     0.0000    24.0000 </r>
       <r>   -22.2614     0.0000    24.0000 </r>
       <r>   -22.1658     6.1817    24.5916 </r>
       <r>   -22.0701     0.0000    28.0000 </r>
       <r>   -21.9744     0.0000    28.0000 </r>
       <r>   -21.8787     0.0000    28.0000 </r>
       <r>   -21.7830     0.0000    28.0000 </r>
       <r>   -21.6873    19.7553    29.8906 </r>
       <r>   -21.5916    41.0043    33.9241 </r>
       <r>   -21.4959    20.8987    36.0000 </r>
       <r>   -21.4002     0.0000    36.0000 </r>
       <r>   -21.3045     0.0000    36.0000 </r>
       <r>   -21.2088     0.0000    36.0000 </r>
       <r>   -21.1131     0.0000    36.0000 </r>
       <r>   -21.0174     0.0000    36.0000 </r>
       <r>   -20.9217     0.0000    36.0000 </r>
       <r>   -20.8260     0.0000    36.0000 </r>
       <r>   -20.7303     0.0000    36.0000 </r>
       <r>   -20.6346     0.3580    36.0343 </r>
       <r>   -20.5389    16.0144    38.0000 </r>
       <r>   -20.4432     0.0000    38.0000 </r>
       <r>   -20.3475     0.0000    38.0000 </r>
       <r>   -20.2518    19.1300    39.8307 </r>
       <r>   -20.1561    14.1565    41.8886 </r>
       <r>   -20.0604     1.5203    42.1455 </r>
       <r>   -19.9647    10.0999    43.3002 </r>
       <r>   -19.8690     5.9186    44.0000 </r>
       <r>   -19.7733     0.0000    44.0000 </r>
       <r>   -19.6776     0.0000    44.0000 </r>
       <r>   -19.5819     0.0179    44.0017 </r>
       <r>   -19.4862    51.5238    48.9325 </r>
       <r>   -19.3905    12.2478    50.2723 </r>
       <r>   -19.2948     7.8554    51.1189 </r>
       <r>   -19.1991     3.7383    51.5578 </r>
       <r>   -19.1034     3.8294    52.0000 </r>
       <r>   -19.0077     0.0000    52.0000 </r>
       <r>   -18.9120    10.9665    53.0495 </r>
       <r>   -18.8163     6.9592    54.0000 </r>
       <r>   -18.7206    11.6130    55.1114 </r>
       <r>   -18.6249    49.4099    60.0956 </r>
       <r>   -18.5292    47.1677    66.2171 </r>
       <r>   -18.4335     8.5988    67.5900 </r>
       <r>   -18.3378     7.2742    68.4629 </r>
       <r>   -18.2421    14.2539    69.9979 </r>
       <r>   -18.1464     2.5845    70.2473 </r>
       <r>   -18.0507     2.9421    70.5818 </r>
       <r>   -17.9550     6.1634    71.2233 </r>
       <r>   -17.8593     4.5798    71.7383 </r>
       <r>   -17.7636    20.8529    73.9956 </r>
       <r>   -17.6679     0.0000    74.0000 </r>
       <r>   -17.5722     0.0000    74.0000 </r>
       <r>   -17.4765     0.0000    74.0000 </r>
       <r>   -17.3808     0.0000    74.0000 </r>
       <r>   -17.2851    34.6601    77.3169 </r>
       <r>   -17.1894     5.3690    78.1815 </r>
       <r>   -17.0937    15.9466    79.9266 </r>
       <r>   -16.9980     6.4117    80.6140 </r>
       <r>   -16.9023     6.1613    81.2896 </r>
       <r>   -16.8066     3.9752    81.7472 </r>
       <r>   -16.7109     1.3905    82.0000 </r>
       <r>   -16.6152     0.8646    82.0827 </r>
       <r>   -16.5195     8.3593    83.0667 </r>
       <r>   -16.4238     3.8227    83.4996 </r>
       <r>   -16.3281     7.2998    84.4654 </r>
       <r>   -16.2324    10.8247    85.7034 </r>
       <r>   -16.1367     0.0000    86.0000 </r>
       <r>   -16.0410     3.9866    86.3815 </r>
       <r>   -15.9453     3.9094    86.8075 </r>
       <r>   -15.8496     2.9120    87.3122 </r>
       <r>   -15.7539     2.3905    87.5954 </r>
       <r>   -15.6582     4.5341    88.0673 </r>
       <r>   -15.5625    14.9856    90.2357 </r>
       <r>   -15.4668     3.9223    90.6755 </r>
       <r>   -15.3711    13.7684    92.0847 </r>
       <r>   -15.2754    13.5675    94.0000 </r>
       <r>   -15.1797    20.6346    95.9747 </r>
       <r>   -15.0840    29.7203    98.8442 </r>
       <r>   -14.9883    29.2552   102.0000 </r>
       <r>   -14.8926     0.0000   102.0000 </r>
       <r>   -14.7969     0.0000   102.0000 </r>
       <r>   -14.7012    20.8988   104.0000 </r>
       <r>   -14.6055    20.7925   105.9898 </r>
       <r>   -14.5098    20.8988   108.0000 </r>
       <r>   -14.4141    24.5544   110.3498 </r>
       <r>   -14.3184     5.5661   112.0017 </r>
       <r>   -14.2227    21.1165   114.0225 </r>
       <r>   -14.1270    35.4942   117.9997 </r>
       <r>   -14.0313     1.2011   118.1149 </r>
       <r>   -13.9356    14.6223   120.0000 </r>
       <r>   -13.8399     0.0000   120.0000 </r>
       <r>   -13.7442    20.8962   121.9998 </r>
       <r>   -13.6485     2.8328   122.2711 </r>
       <r>   -13.5528     0.0000   126.0000 </r>
       <r>   -13.4571    20.8987   128.0000 </r>
       <r>   -13.3614    15.1093   129.4460 </r>
       <r>   -13.2657    34.1165   133.0994 </r>
       <r>   -13.1700     4.1659   134.0000 </r>
       <r>   -13.0743     0.0000   134.0000 </r>
       <r>   -12.9786     0.0402   134.0039 </r>
       <r>   -12.8829    38.5898   137.8279 </r>
       <r>   -12.7872    10.0258   138.9595 </r>
       <r>   -12.6915     0.0000   140.0000 </r>
       <r>   -12.5958    17.3920   141.6644 </r>
       <r>   -12.5001    15.0455   143.4399 </r>
       <r>   -12.4044     0.0000   144.0000 </r>
       <r>   -12.3087    15.9157   145.5231 </r>
       <r>   -12.2130    20.8985   148.0001 </r>
       <r>   -12.1173    43.9562   152.2066 </r>
       <r>   -12.0216    14.9714   154.0000 </r>
       <r>   -11.9259    16.4312   155.5725 </r>
       <r>   -11.8302     0.0000   156.0000 </r>
       <r>   -11.7345     0.0000   156.0000 </r>
       <r>   -11.6388     0.0001   156.0000 </r>
       <r>   -11.5431    20.8987   158.0000 </r>
       <r>   -11.4474     0.0362   158.0035 </r>
       <r>   -11.3517    20.8625   160.0000 </r>
       <r>   -11.2560    18.5247   161.7728 </r>
       <r>   -11.1603    19.2510   164.0440 </r>
       <r>   -11.0646    30.4419   168.0161 </r>
       <r>   -10.9689    49.1438   173.1725 </r>
       <r>   -10.8732    35.1842   177.3688 </r>
       <r>   -10.7775    41.7975   182.0000 </r>
       <r>   -10.6818     9.4909   182.9083 </r>
       <r>   -10.5861    15.2386   185.4583 </r>
       <r>   -10.4904    20.9776   188.0075 </r>
       <r>   -10.3947    40.3325   192.0000 </r>
       <r>   -10.2990    60.2316   197.7641 </r>
       <r>   -10.2033    50.6015   204.8428 </r>
       <r>   -10.1076    20.8979   207.9999 </r>
       <r>   -10.0119    20.8959   209.9997 </r>
       <r>    -9.9162     9.2823   210.8883 </r>
       <r>    -9.8205    18.0907   213.1654 </r>
       <r>    -9.7248    17.6207   215.6863 </r>
       <r>    -9.6291    25.2229   219.8495 </r>
       <r>    -9.5334    51.2255   225.6732 </r>
       <r>    -9.4377    20.8987   228.0000 </r>
       <r>    -9.3420     0.0000   228.0000 </r>
       <r>    -9.2463     0.0000   228.0000 </r>
       <r>    -9.1506    17.7637   229.7000 </r>
       <r>    -9.0549    23.3709   232.4376 </r>
       <r>    -8.9592    49.9527   237.8480 </r>
       <r>    -8.8635     8.0028   240.0000 </r>
       <r>    -8.7678    22.5748   242.1604 </r>
       <r>    -8.6721    20.8667   244.7980 </r>
       <r>    -8.5764    24.0745   247.6041 </r>
       <r>    -8.4807    24.0067   250.2974 </r>
       <r>    -8.3850    72.1231   257.7032 </r>
       <r>    -8.2893    83.5220   267.4949 </r>
       <r>    -8.1936     0.0000   268.0000 </r>
       <r>    -8.0979    41.7822   271.9985 </r>
       <r>    -8.0022     0.0000   272.0000 </r>
       <r>    -7.9065     0.0109   272.0010 </r>
       <r>    -7.8108    20.7669   273.9884 </r>
       <r>    -7.7151    32.7488   277.1340 </r>
       <r>    -7.6194     0.0000   278.0000 </r>
       <r>    -7.5237     0.0000   278.0000 </r>
       <r>    -7.4280     0.0000   278.0000 </r>
       <r>    -7.3323     0.0428   278.0041 </r>
       <r>    -7.2366    41.7572   282.0002 </r>
       <r>    -7.1409    33.9501   285.2493 </r>
       <r>    -7.0452    11.5242   287.1029 </r>
       <r>    -6.9495     7.9369   288.0600 </r>
       <r>    -6.8538    16.6170   289.9905 </r>
       <r>    -6.7581     0.0000   290.0000 </r>
       <r>    -6.6624     0.0000   290.0000 </r>
       <r>    -6.5667    37.9615   293.6329 </r>
       <r>    -6.4710    65.0353   301.8271 </r>
       <r>    -6.3753    38.6955   306.4052 </r>
       <r>    -6.2796    24.2962   309.3256 </r>
       <r>    -6.1839    62.6086   315.9916 </r>
       <r>    -6.0882     0.0000   318.0000 </r>
       <r>    -5.9925     0.0000   318.0000 </r>
       <r>    -5.8968     0.0001   318.0000 </r>
       <r>    -5.8011    59.0604   323.6521 </r>
       <r>    -5.7054    20.8967   325.9998 </r>
       <r>    -5.6097     0.0000   326.0000 </r>
       <r>    -5.5140    10.0163   326.9586 </r>
       <r>    -5.4183    22.5848   330.0000 </r>
       <r>    -5.3226     0.0000   330.0000 </r>
       <r>    -5.2269     0.0000   330.0000 </r>
       <r>    -5.1312    20.8987   332.0000 </r>
       <r>    -5.0355     0.0000   332.0000 </r>
       <r>    -4.9398     0.0000   332.0000 </r>
       <r>    -4.8441     0.2892   332.0277 </r>
       <r>    -4.7484    16.3590   334.0000 </r>
       <r>    -4.6527     0.0000   334.0000 </r>
       <r>    -4.5570     0.0000   334.0000 </r>
       <r>    -4.4613     0.0000   334.0000 </r>
       <r>    -4.3656     0.0000   334.0000 </r>
       <r>    -4.2699     0.0000   334.0000 </r>
       <r>    -4.1742     0.0000   334.0000 </r>
       <r>    -4.0785     0.0000   334.0000 </r>
       <r>    -3.9829     0.0000   334.0000 </r>
       <r>    -3.8872     0.0000   334.0000 </r>
       <r>    -3.7915     0.0000   334.0000 </r>
       <r>    -3.6958     0.0000   334.0000 </r>
       <r>    -3.6001     0.0000   334.0000 </r>
       <r>    -3.5044     0.0000   334.0000 </r>
       <r>    -3.4087     0.0000   334.0000 </r>
       <r>    -3.3130     0.2326   334.0223 </r>
       <r>    -3.2173    24.9733   336.7912 </r>
       <r>    -3.1216    10.1034   338.0003 </r>
       <r>    -3.0259    19.9718   339.9116 </r>
       <r>    -2.9302    19.1538   342.0000 </r>
       <r>    -2.8345     0.0000   342.0000 </r>
       <r>    -2.7388    41.7974   346.0000 </r>
       <r>    -2.6431     0.0000   346.0000 </r>
       <r>    -2.5474     0.0000   346.0000 </r>
       <r>    -2.4517     0.0113   346.0011 </r>
       <r>    -2.3560    37.7337   349.6122 </r>
       <r>    -2.2603     0.0000   350.0000 </r>
       <r>    -2.1646     0.0000   350.0000 </r>
       <r>    -2.0689     0.0000   350.0000 </r>
       <r>    -1.9732     0.0000   350.0000 </r>
       <r>    -1.8775     0.0000   350.0000 </r>
       <r>    -1.7818     0.0000   350.0000 </r>
       <r>    -1.6861    20.8434   351.9947 </r>
       <r>    -1.5904     0.0000   352.0000 </r>
       <r>    -1.4947     0.0000   352.0000 </r>
       <r>    -1.3990    33.0671   355.1645 </r>
       <r>    -1.3033    41.7973   360.0000 </r>
       <r>    -1.2076    41.7739   363.9977 </r>
       <r>    -1.1119     0.0000   364.0000 </r>
       <r>    -1.0162     0.0000   364.0000 </r>
       <r>    -0.9205     0.0000   364.0000 </r>
       <r>    -0.8248     0.0000   364.0000 </r>
       <r>    -0.7291     0.0000   364.0000 </r>
       <r>    -0.6334     0.0000   364.0000 </r>
       <r>    -0.5377     0.0000   364.0000 </r>
       <r>    -0.4420    41.7882   367.9991 </r>
       <r>    -0.3463    11.6846   369.1182 </r>
       <r>    -0.2506    20.7087   373.9818 </r>
       <r>    -0.1549    29.6290   376.8355 </r>
       <r>    -0.0592    32.2505   381.0864 </r>
       <r>     0.0365    29.6637   384.8388 </r>
       <r>     0.1322    36.0312   388.6483 </r>
       <r>     0.2279    46.2500   393.2266 </r>
       <r>     0.3236    45.3593   398.3783 </r>
       <r>     0.4193    36.2487   403.1032 </r>
       <r>     0.5150    42.7780   407.8612 </r>
       <r>     0.6107    56.8885   414.3488 </r>
       <r>     0.7064    76.4080   422.2481 </r>
       <r>     0.8021    49.7161   428.7607 </r>
       <r>     0.8978    95.2152   438.3157 </r>
       <r>     0.9935    65.4625   446.0998 </r>
       <r>     1.0892    10.7587   448.0000 </r>
       <r>     1.1849     0.0000   448.0000 </r>
       <r>     1.2806     0.0000   448.0000 </r>
       <r>     1.3763     0.0000   448.0000 </r>
       <r>     1.4720     0.0000   448.0000 </r>
       <r>     1.5677     0.0000   448.0000 </r>
       <r>     1.6634     0.0000   448.0000 </r>
       <r>     1.7591     0.0000   448.0000 </r>
       <r>     1.8548     0.0000   448.0000 </r>
       <r>     1.9505     0.0000   448.0000 </r>
       <r>     2.0462     0.0000   448.0000 </r>
       <r>     2.1419     0.0000   448.0000 </r>
       <r>     2.2376     0.0000   448.0000 </r>
       <r>     2.3333     0.0000   448.0000 </r>
      </set>
     </set>
    </array>
   </total>
  </dos>
 </calculation>
 <structure name="finalpos" >
  <crystal>
   <varray name="basis" >
    <v>      25.44696122       0.04179417       0.00000000 </v>
    <v>       0.02522003      25.42411374       0.00000000 </v>
    <v>       0.00000000       0.00000000      20.00000000 </v>
   </varray>
   <i name="volume">  12939.30764820 </i>
   <varray name="rec_basis" >
    <v>       0.03929749      -0.00003898       0.00000000 </v>
    <v>      -0.00006460       0.03933280       0.00000000 </v>
    <v>       0.00000000       0.00000000       0.05000000 </v>
   </varray>
  </crystal>
  <varray name="positions" >
   <v>       0.21476183       0.97509126       0.45044416 </v>
   <v>       0.26922119       0.97808632       0.45207911 </v>
   <v>       0.97790865       0.76313050       0.45166683 </v>
   <v>       0.98059676       0.70859391       0.45243377 </v>
   <v>       0.71007885       0.99423816       0.45162644 </v>
   <v>       0.76457946       0.99585766       0.44972180 </v>
   <v>       0.99562637       0.21267655       0.44663267 </v>
   <v>       0.99399010       0.26723732       0.44886485 </v>
   <v>       0.99997244       0.46434703       0.41060102 </v>
   <v>       0.98814946       0.43440852       0.46831192 </v>
   <v>       0.51305032       0.00051631       0.41265992 </v>
   <v>       0.54298302       0.98754721       0.47000916 </v>
   <v>       0.08297965       0.12892515       0.49841614 </v>
   <v>       0.12270288       0.09227408       0.49852080 </v>
   <v>       0.09928909       0.04099900       0.50055156 </v>
   <v>       0.03386476       0.10137216       0.49928517 </v>
   <v>       0.98335464       0.12383601       0.50057697 </v>
   <v>       0.93553843       0.09584708       0.50132105 </v>
   <v>       0.87740686       0.03317026       0.50186453 </v>
   <v>       0.84794275       0.08248247       0.50226775 </v>
   <v>       0.88423172       0.12160757       0.50147425 </v>
   <v>       0.85317336       0.98331532       0.50380826 </v>
   <v>       0.87945066       0.93464400       0.50452579 </v>
   <v>       0.94469862       0.87407522       0.50384801 </v>
   <v>       0.89546544       0.84670030       0.50628039 </v>
   <v>       0.85585573       0.88347627       0.50607502 </v>
   <v>       0.99527935       0.85158236       0.50384118 </v>
   <v>       0.04315313       0.87966410       0.50298779 </v>
   <v>       0.10137951       0.94240536       0.50174687 </v>
   <v>       0.13079200       0.89308265       0.50251745 </v>
   <v>       0.09451237       0.85397280       0.50225706 </v>
   <v>       0.12569388       0.99230616       0.50171895 </v>
   <v>       0.18418216       0.99465263       0.50373090 </v>
   <v>       0.29477201       0.00124052       0.50712811 </v>
   <v>       0.26446478       0.02085594       0.56035979 </v>
   <v>       0.20990769       0.01726986       0.55883714 </v>
   <v>       0.99780938       0.79304231       0.50528487 </v>
   <v>       0.00377878       0.68228642       0.50696331 </v>
   <v>       0.02374448       0.71192131       0.56053011 </v>
   <v>       0.02039277       0.76657806       0.55992557 </v>
   <v>       0.79463644       0.98137101       0.50596529 </v>
   <v>       0.76853078       0.96506521       0.56420955 </v>
   <v>       0.71386661       0.96345699       0.56631331 </v>
   <v>       0.68386573       0.97804772       0.51018396 </v>
   <v>       0.98096855       0.18243809       0.50258853 </v>
   <v>       0.96440208       0.20844749       0.56087217 </v>
   <v>       0.97757392       0.29333856       0.50746554 </v>
   <v>       0.96268671       0.26315682       0.56326748 </v>
   <v>       0.00827304       0.62513506       0.50851970 </v>
   <v>       0.62677089       0.97598847       0.51400274 </v>
   <v>       0.97560535       0.35049634       0.51161139 </v>
   <v>       0.35179848       0.00616603       0.50964357 </v>
   <v>       0.98787472       0.54152232       0.46756520 </v>
   <v>       0.97528157       0.51139412       0.52577881 </v>
   <v>       0.96039985       0.53674989       0.58712309 </v>
   <v>       0.43596760       0.98709883       0.46908461 </v>
   <v>       0.46607514       0.97368651       0.52704524 </v>
   <v>       0.44089374       0.95852288       0.58834599 </v>
   <v>       0.00507361       0.29078436       0.40556463 </v>
   <v>       0.00801931       0.19259809       0.40104024 </v>
   <v>       0.78478299       0.00817887       0.40424583 </v>
   <v>       0.68666386       0.00518095       0.40811720 </v>
   <v>       0.96095356       0.78347153       0.40871744 </v>
   <v>       0.96579884       0.68539661       0.41065065 </v>
   <v>       0.29294732       0.96353577       0.41056860 </v>
   <v>       0.19501352       0.95805830       0.40718101 </v>
   <v>       0.00971008       0.44398659       0.36406105 </v>
   <v>       0.53336970       0.01135434       0.36652305 </v>
   <v>       0.94999062       0.28304832       0.60892225 </v>
   <v>       0.95317769       0.18527871       0.60446850 </v>
   <v>       0.08688990       0.17137979       0.49765122 </v>
   <v>       0.16461863       0.09970037       0.49712144 </v>
   <v>       0.01863242       0.01898667       0.50145126 </v>
   <v>       0.96019341       0.95636626       0.50192782 </v>
   <v>       0.87722499       0.16374011       0.50091189 </v>
   <v>       0.80545966       0.08639143       0.50309374 </v>
   <v>       0.79154521       0.95407562       0.60807289 </v>
   <v>       0.69386574       0.95103499       0.61195270 </v>
   <v>       0.81387815       0.87628779       0.50693993 </v>
   <v>       0.89134438       0.80429615       0.50810779 </v>
   <v>       0.17325144       0.88899285       0.50315080 </v>
   <v>       0.10174671       0.81189620       0.50152023 </v>
   <v>       0.03534455       0.78937085       0.60198015 </v>
   <v>       0.04139938       0.69172810       0.60320917 </v>
   <v>       0.18661388       0.03195008       0.60066641 </v>
   <v>       0.28406337       0.03845515       0.60345243 </v>
   <v>       0.03324152       0.60855726       0.54853122 </v>
   <v>       0.60958729       0.96206210       0.56144187 </v>
   <v>       0.96102945       0.36762760       0.55880881 </v>
   <v>       0.36764270       0.03064376       0.55053757 </v>
   <v>       0.99939934       0.51648930       0.40987392 </v>
   <v>       0.99023474       0.37988394       0.46228046 </v>
   <v>       0.46095551       0.99980499       0.41183624 </v>
   <v>       0.59746420       0.98981737       0.46416129 </v>
   <v>       0.04571633       0.04851303       0.50026979 </v>
   <v>       0.93047040       0.04219987       0.50116985 </v>
   <v>       0.93299409       0.92694567       0.50301138 </v>
   <v>       0.04826228       0.93333054       0.50216118 </v>
   <v>       0.97555845       0.45868435       0.52569217 </v>
   <v>       0.94827685       0.55794319       0.63666074 </v>
   <v>       0.98572037       0.59559542       0.46492492 </v>
   <v>       0.51873717       0.97384080       0.52691806 </v>
   <v>       0.42002191       0.94663865       0.63815545 </v>
   <v>       0.38200699       0.98458188       0.46591226 </v>
  </varray>
 </structure>
</modeling>
