<?xml version="1.0" encoding="ISO-8859-1"?>
<modeling>
 <generator>
  <i name="program" type="string">vasp </i>
  <i name="version" type="string">5.4.4.18Apr17-6-g9f103f2a35  </i>
  <i name="subversion" type="string">(build Jun 07 2020 16:50:00) complex            parallel </i>
  <i name="platform" type="string">LinuxIFC </i>
  <i name="date" type="string">2023 02 25 </i>
  <i name="time" type="string">04:55:27 </i>
 </generator>
 <incar>
  <i type="string" name="SYSTEM">Simulation for cell shape cell volume r</i>
  <i type="int" name="ISTART">     1</i>
  <i type="string" name="PREC">high</i>
  <i type="string" name="ALGO">48</i>
  <i type="int" name="ICHARG">    11</i>
  <i type="int" name="NELM">   200</i>
  <i type="int" name="IBRION">    -1</i>
  <i name="EDIFF">      0.00001000</i>
  <i name="EDIFFG">     -0.01000000</i>
  <i type="int" name="NSW">     0</i>
  <i type="int" name="ISIF">     2</i>
  <i name="ENCUT">    500.00000000</i>
  <i name="POTIM">      0.30000000</i>
  <i type="string" name="LREAL">A</i>
  <i type="int" name="ISMEAR">     0</i>
  <i name="SIGMA">      0.01000000</i>
  <i type="int" name="NWRITE">     0</i>
  <i type="logical" name="LWAVE"> F  </i>
  <i type="logical" name="LCHARG"> F  </i>
  <v type="int" name="KPOINT_BSE">    -1     0     0     0</v>
  <i type="int" name="NELM">   200</i>
  <i type="string" name="GGA">PE</i>
 </incar>
 <structure name="primitive_cell" >
  <crystal>
   <varray name="basis" >
    <v>      28.97416549       0.05041778       0.00000000 </v>
    <v>     -14.44354398      25.02209000       0.00000000 </v>
    <v>       0.00000000       0.00000000      20.00000000 </v>
   </varray>
   <i name="volume">  14514.44776041 </i>
   <varray name="rec_basis" >
    <v>       0.03447887       0.01990230       0.00000000 </v>
    <v>      -0.00006947       0.03992459       0.00000000 </v>
    <v>       0.00000000       0.00000000       0.05000000 </v>
   </varray>
  </crystal>
  <varray name="positions" >
   <v>      -0.36081100       0.36112168      -0.47326353 </v>
   <v>      -0.38985378       0.38753363      -0.47156941 </v>
   <v>      -0.30514388       0.38912352      -0.47441239 </v>
   <v>      -0.38886962       0.30472972      -0.47222904 </v>
   <v>      -0.42878223       0.36497003      -0.48438238 </v>
   <v>      -0.43224712       0.28364338      -0.47146234 </v>
   <v>      -0.28289555       0.43262118      -0.47544751 </v>
   <v>      -0.27697690       0.36089121      -0.47342432 </v>
   <v>      -0.36084911       0.27690840      -0.47132084 </v>
   <v>      -0.36606789       0.44379763      -0.48867912 </v>
   <v>      -0.34599629       0.45255412       0.46194482 </v>
   <v>      -0.30461437       0.30505263      -0.47239419 </v>
   <v>      -0.33526425       0.46784183      -0.45140116 </v>
   <v>      -0.22167962       0.39001353      -0.47194501 </v>
   <v>      -0.38718497       0.22147288      -0.46785304 </v>
   <v>      -0.40817737       0.45979210      -0.48903899 </v>
   <v>      -0.28348848       0.28267127      -0.47181305 </v>
   <v>      -0.20541888       0.42875861      -0.48613180 </v>
   <v>      -0.45266196       0.20051223       0.46678124 </v>
   <v>      -0.46702543       0.19659734      -0.44634944 </v>
   <v>      -0.44351925       0.18931219      -0.48395926 </v>
   <v>      -0.42676877       0.44220995       0.40559809 </v>
   <v>      -0.36498899       0.20466479      -0.48104549 </v>
   <v>      -0.43689843       0.45554675       0.45183719 </v>
   <v>      -0.40113528       0.48108335      -0.38479398 </v>
   <v>      -0.42187891       0.47720718      -0.43191272 </v>
   <v>      -0.18941584       0.36577837      -0.48773837 </v>
   <v>      -0.20073320       0.34485677       0.46338935 </v>
   <v>      -0.19614127       0.33549556      -0.44956720 </v>
   <v>      -0.47580905       0.46692821       0.44743914 </v>
   <v>      -0.45983631       0.13107092      -0.48391651 </v>
   <v>      -0.46273593       0.49027512      -0.43425846 </v>
   <v>      -0.13149649       0.40796056      -0.48846353 </v>
   <v>      -0.48908182       0.48423168      -0.49679913 </v>
   <v>      -0.44006880       0.13002108       0.41153325 </v>
   <v>      -0.48340954       0.11687263      -0.38040270 </v>
   <v>      -0.13093255       0.42650185       0.40618455 </v>
   <v>      -0.45458418       0.10646740       0.45759601 </v>
   <v>      -0.47868448       0.09989190      -0.42700979 </v>
   <v>      -0.10734280       0.43668453       0.45228209 </v>
   <v>      -0.11696458       0.40109061      -0.38427232 </v>
   <v>      -0.45681991      -0.48681919      -0.32952946 </v>
   <v>      -0.10029894       0.42181333      -0.43149034 </v>
   <v>      -0.47769344      -0.49088012      -0.37654663 </v>
   <v>       0.46883741       0.49778259       0.49934634 </v>
   <v>      -0.05721020       0.47568389       0.44760224 </v>
   <v>      -0.46634014       0.05596606       0.45360722 </v>
   <v>      -0.49221658       0.04573853      -0.42896436 </v>
   <v>      -0.04654567       0.46276354      -0.43414923 </v>
   <v>       0.48297027      -0.47804899      -0.38021514 </v>
   <v>       0.44369727       0.49213171       0.44028919 </v>
   <v>      -0.02652040       0.48903285      -0.49682140 </v>
   <v>      -0.48512592       0.02530529      -0.49085337 </v>
   <v>       0.45574210      -0.48301487      -0.44187439 </v>
   <v>       0.48265359       0.02880617      -0.32499934 </v>
   <v>       0.48737195       0.01182081      -0.37154812 </v>
   <v>       0.47174033      -0.46351521      -0.33621449 </v>
   <v>      -0.02930572       0.45700928      -0.32951971 </v>
   <v>      -0.01261685       0.47775308      -0.37665682 </v>
   <v>       0.40659267      -0.49386570       0.43732831 </v>
   <v>       0.02901508      -0.46901058       0.49892747 </v>
   <v>       0.41581659      -0.46879942      -0.44740278 </v>
   <v>      -0.49930019      -0.03059017      -0.49436663 </v>
   <v>       0.47383591      -0.04063981      -0.37494143 </v>
   <v>       0.03950820      -0.48316735      -0.38075351 </v>
   <v>       0.38723512      -0.49864741       0.38872817 </v>
   <v>       0.04826108      -0.44387431       0.43979419 </v>
   <v>       0.39090774      -0.47359244       0.49185462 </v>
   <v>       0.40503171      -0.45370123      -0.40345954 </v>
   <v>      -0.49272427      -0.05019575       0.44714692 </v>
   <v>       0.06153950      -0.45615377      -0.44261972 </v>
   <v>       0.47977401      -0.06305253      -0.43598603 </v>
   <v>       0.45797698      -0.06651550      -0.33119618 </v>
   <v>       0.06542690      -0.47203566      -0.33698251 </v>
   <v>       0.09936148      -0.40720797       0.43630063 </v>
   <v>       0.49270565      -0.10149892       0.44432324 </v>
   <v>       0.35127785      -0.45482424       0.48294593 </v>
   <v>       0.11570024      -0.41675984      -0.44871497 </v>
   <v>       0.41863711      -0.37880732       0.48014203 </v>
   <v>       0.46482969      -0.11748921      -0.44137960 </v>
   <v>       0.11370945      -0.38781695       0.38764152 </v>
   <v>       0.32325956      -0.47748091       0.44229374 </v>
   <v>       0.32727036      -0.46264688      -0.47092390 </v>
   <v>       0.13558278      -0.39202361       0.49036380 </v>
   <v>       0.49837954      -0.11614322       0.39619941 </v>
   <v>       0.37971724      -0.39818505       0.46662802 </v>
   <v>       0.14178831      -0.40625113      -0.40507100 </v>
   <v>       0.47071221      -0.13764429       0.49842795 </v>
   <v>       0.44835699      -0.14353452      -0.39776210 </v>
   <v>       0.35531361      -0.36726230       0.46765905 </v>
   <v>       0.19386570      -0.35285521       0.48090421 </v>
   <v>       0.43113607      -0.29381912       0.47040759 </v>
   <v>       0.37610002      -0.20385434       0.48239744 </v>
   <v>       0.19923197      -0.32436657       0.44074455 </v>
   <v>       0.45155361      -0.19615743       0.48934296 </v>
   <v>       0.20161809      -0.42093103       0.47575075 </v>
   <v>       0.21048403      -0.32916693      -0.47279567 </v>
   <v>       0.27417058      -0.43368060       0.46468551 </v>
   <v>       0.47536108      -0.20159586       0.45028842 </v>
   <v>       0.38802253      -0.31113465       0.46944694 </v>
   <v>       0.45742222      -0.21309044      -0.46379355 </v>
   <v>       0.22154861      -0.38163955       0.46346517 </v>
   <v>       0.39575735      -0.22340395       0.46970240 </v>
   <v>       0.29989687      -0.39044862       0.46625968 </v>
   <v>       0.36484798      -0.27872055       0.46913754 </v>
   <v>       0.29152808      -0.27604385       0.46681052 </v>
   <v>       0.27667300      -0.35750341       0.46596003 </v>
   <v>       0.30888109      -0.30193993       0.46748726 </v>
  </varray>
 </structure>
 <varray name="primitive_index" >
  <v type="int" >        1 </v>
  <v type="int" >       55 </v>
  <v type="int" >        6 </v>
  <v type="int" >        2 </v>
  <v type="int" >       70 </v>
  <v type="int" >       69 </v>
  <v type="int" >       68 </v>
  <v type="int" >        5 </v>
  <v type="int" >        3 </v>
  <v type="int" >       44 </v>
  <v type="int" >       99 </v>
  <v type="int" >        4 </v>
  <v type="int" >      100 </v>
  <v type="int" >       56 </v>
  <v type="int" >       57 </v>
  <v type="int" >       43 </v>
  <v type="int" >       67 </v>
  <v type="int" >       71 </v>
  <v type="int" >      107 </v>
  <v type="int" >      108 </v>
  <v type="int" >       54 </v>
  <v type="int" >       98 </v>
  <v type="int" >       72 </v>
  <v type="int" >       42 </v>
  <v type="int" >       82 </v>
  <v type="int" >       17 </v>
  <v type="int" >       49 </v>
  <v type="int" >      103 </v>
  <v type="int" >      104 </v>
  <v type="int" >       62 </v>
  <v type="int" >       53 </v>
  <v type="int" >       18 </v>
  <v type="int" >       48 </v>
  <v type="int" >       41 </v>
  <v type="int" >      106 </v>
  <v type="int" >       94 </v>
  <v type="int" >      102 </v>
  <v type="int" >       52 </v>
  <v type="int" >       35 </v>
  <v type="int" >       47 </v>
  <v type="int" >       88 </v>
  <v type="int" >       80 </v>
  <v type="int" >       26 </v>
  <v type="int" >       19 </v>
  <v type="int" >       14 </v>
  <v type="int" >       64 </v>
  <v type="int" >       66 </v>
  <v type="int" >       36 </v>
  <v type="int" >       27 </v>
  <v type="int" >       20 </v>
  <v type="int" >       61 </v>
  <v type="int" >       46 </v>
  <v type="int" >       51 </v>
  <v type="int" >       15 </v>
  <v type="int" >       92 </v>
  <v type="int" >       37 </v>
  <v type="int" >       81 </v>
  <v type="int" >       86 </v>
  <v type="int" >       28 </v>
  <v type="int" >       40 </v>
  <v type="int" >       23 </v>
  <v type="int" >       16 </v>
  <v type="int" >       32 </v>
  <v type="int" >       38 </v>
  <v type="int" >       29 </v>
  <v type="int" >       97 </v>
  <v type="int" >       63 </v>
  <v type="int" >       13 </v>
  <v type="int" >       79 </v>
  <v type="int" >       65 </v>
  <v type="int" >       24 </v>
  <v type="int" >       33 </v>
  <v type="int" >       93 </v>
  <v type="int" >       87 </v>
  <v type="int" >       45 </v>
  <v type="int" >       50 </v>
  <v type="int" >       21 </v>
  <v type="int" >       25 </v>
  <v type="int" >       76 </v>
  <v type="int" >       34 </v>
  <v type="int" >      101 </v>
  <v type="int" >       83 </v>
  <v type="int" >       84 </v>
  <v type="int" >       22 </v>
  <v type="int" >      105 </v>
  <v type="int" >       58 </v>
  <v type="int" >       85 </v>
  <v type="int" >       31 </v>
  <v type="int" >       91 </v>
  <v type="int" >        7 </v>
  <v type="int" >       30 </v>
  <v type="int" >       75 </v>
  <v type="int" >       78 </v>
  <v type="int" >       89 </v>
  <v type="int" >       39 </v>
  <v type="int" >       77 </v>
  <v type="int" >       90 </v>
  <v type="int" >       74 </v>
  <v type="int" >       95 </v>
  <v type="int" >        8 </v>
  <v type="int" >       96 </v>
  <v type="int" >       59 </v>
  <v type="int" >       60 </v>
  <v type="int" >       12 </v>
  <v type="int" >        9 </v>
  <v type="int" >       73 </v>
  <v type="int" >       11 </v>
  <v type="int" >       10 </v>
 </varray>
 <kpoints>
  <generation param="listgenerated">
   <i name="divisions" type="int">      20 </i>
   <v>       0.00000000       0.00000000       0.00000000 </v>
   <v>       0.50000000       0.00000000       0.00000000 </v>
   <v>       0.33333333       0.33333333       0.00000000 </v>
   <v>       0.00000000       0.00000000       0.00000000 </v>
  </generation>
  <varray name="kpointlist" >
   <v>       0.00000000       0.00000000       0.00000000 </v>
   <v>       0.02631579       0.00000000       0.00000000 </v>
   <v>       0.05263158       0.00000000       0.00000000 </v>
   <v>       0.07894737       0.00000000       0.00000000 </v>
   <v>       0.10526316       0.00000000       0.00000000 </v>
   <v>       0.13157895       0.00000000       0.00000000 </v>
   <v>       0.15789474       0.00000000       0.00000000 </v>
   <v>       0.18421053       0.00000000       0.00000000 </v>
   <v>       0.21052632       0.00000000       0.00000000 </v>
   <v>       0.23684211       0.00000000       0.00000000 </v>
   <v>       0.26315789       0.00000000       0.00000000 </v>
   <v>       0.28947368       0.00000000       0.00000000 </v>
   <v>       0.31578947       0.00000000       0.00000000 </v>
   <v>       0.34210526       0.00000000       0.00000000 </v>
   <v>       0.36842105       0.00000000       0.00000000 </v>
   <v>       0.39473684       0.00000000       0.00000000 </v>
   <v>       0.42105263       0.00000000       0.00000000 </v>
   <v>       0.44736842       0.00000000       0.00000000 </v>
   <v>       0.47368421       0.00000000       0.00000000 </v>
   <v>       0.50000000       0.00000000       0.00000000 </v>
   <v>       0.50000000       0.00000000       0.00000000 </v>
   <v>       0.49122807       0.01754386       0.00000000 </v>
   <v>       0.48245614       0.03508772       0.00000000 </v>
   <v>       0.47368421       0.05263158       0.00000000 </v>
   <v>       0.46491228       0.07017544       0.00000000 </v>
   <v>       0.45614035       0.08771930       0.00000000 </v>
   <v>       0.44736842       0.10526316       0.00000000 </v>
   <v>       0.43859649       0.12280702       0.00000000 </v>
   <v>       0.42982456       0.14035088       0.00000000 </v>
   <v>       0.42105263       0.15789474       0.00000000 </v>
   <v>       0.41228070       0.17543860       0.00000000 </v>
   <v>       0.40350877       0.19298246       0.00000000 </v>
   <v>       0.39473684       0.21052632       0.00000000 </v>
   <v>       0.38596491       0.22807018       0.00000000 </v>
   <v>       0.37719298       0.24561404       0.00000000 </v>
   <v>       0.36842105       0.26315789       0.00000000 </v>
   <v>       0.35964912       0.28070175       0.00000000 </v>
   <v>       0.35087719       0.29824561       0.00000000 </v>
   <v>       0.34210526       0.31578947       0.00000000 </v>
   <v>       0.33333333       0.33333333       0.00000000 </v>
   <v>       0.33333333       0.33333333       0.00000000 </v>
   <v>       0.31578947       0.31578947       0.00000000 </v>
   <v>       0.29824561       0.29824561       0.00000000 </v>
   <v>       0.28070175       0.28070175       0.00000000 </v>
   <v>       0.26315789       0.26315789       0.00000000 </v>
   <v>       0.24561404       0.24561404       0.00000000 </v>
   <v>       0.22807018       0.22807018       0.00000000 </v>
   <v>       0.21052632       0.21052632       0.00000000 </v>
   <v>       0.19298246       0.19298246       0.00000000 </v>
   <v>       0.17543860       0.17543860       0.00000000 </v>
   <v>       0.15789474       0.15789474       0.00000000 </v>
   <v>       0.14035088       0.14035088       0.00000000 </v>
   <v>       0.12280702       0.12280702       0.00000000 </v>
   <v>       0.10526316       0.10526316       0.00000000 </v>
   <v>       0.08771930       0.08771930       0.00000000 </v>
   <v>       0.07017544       0.07017544       0.00000000 </v>
   <v>       0.05263158       0.05263158       0.00000000 </v>
   <v>       0.03508772       0.03508772       0.00000000 </v>
   <v>       0.01754386       0.01754386       0.00000000 </v>
   <v>       0.00000000       0.00000000       0.00000000 </v>
  </varray>
  <varray name="weights" >
   <v>       0.01666667 </v>
   <v>       0.01666667 </v>
   <v>       0.01666667 </v>
   <v>       0.01666667 </v>
   <v>       0.01666667 </v>
   <v>       0.01666667 </v>
   <v>       0.01666667 </v>
   <v>       0.01666667 </v>
   <v>       0.01666667 </v>
   <v>       0.01666667 </v>
   <v>       0.01666667 </v>
   <v>       0.01666667 </v>
   <v>       0.01666667 </v>
   <v>       0.01666667 </v>
   <v>       0.01666667 </v>
   <v>       0.01666667 </v>
   <v>       0.01666667 </v>
   <v>       0.01666667 </v>
   <v>       0.01666667 </v>
   <v>       0.01666667 </v>
   <v>       0.01666667 </v>
   <v>       0.01666667 </v>
   <v>       0.01666667 </v>
   <v>       0.01666667 </v>
   <v>       0.01666667 </v>
   <v>       0.01666667 </v>
   <v>       0.01666667 </v>
   <v>       0.01666667 </v>
   <v>       0.01666667 </v>
   <v>       0.01666667 </v>
   <v>       0.01666667 </v>
   <v>       0.01666667 </v>
   <v>       0.01666667 </v>
   <v>       0.01666667 </v>
   <v>       0.01666667 </v>
   <v>       0.01666667 </v>
   <v>       0.01666667 </v>
   <v>       0.01666667 </v>
   <v>       0.01666667 </v>
   <v>       0.01666667 </v>
   <v>       0.01666667 </v>
   <v>       0.01666667 </v>
   <v>       0.01666667 </v>
   <v>       0.01666667 </v>
   <v>       0.01666667 </v>
   <v>       0.01666667 </v>
   <v>       0.01666667 </v>
   <v>       0.01666667 </v>
   <v>       0.01666667 </v>
   <v>       0.01666667 </v>
   <v>       0.01666667 </v>
   <v>       0.01666667 </v>
   <v>       0.01666667 </v>
   <v>       0.01666667 </v>
   <v>       0.01666667 </v>
   <v>       0.01666667 </v>
   <v>       0.01666667 </v>
   <v>       0.01666667 </v>
   <v>       0.01666667 </v>
   <v>       0.01666667 </v>
  </varray>
 </kpoints>
 <parameters>
  <separator name="general" >
   <i type="string" name="SYSTEM">Simulation for cell shape cell volume r</i>
   <i type="logical" name="LCOMPAT"> F  </i>
  </separator>
  <separator name="electronic" >
   <i type="string" name="PREC">high</i>
   <i name="ENMAX">    500.00000000</i>
   <i name="ENAUG">    644.87300000</i>
   <i name="EDIFF">      0.00001000</i>
   <i type="int" name="IALGO">    38</i>
   <i type="int" name="IWAVPR">    10</i>
   <i type="int" name="NBANDS">   224</i>
   <i name="NELECT">    318.00000000</i>
   <i type="int" name="TURBO">     0</i>
   <i type="int" name="IRESTART">     0</i>
   <i type="int" name="NREBOOT">     0</i>
   <i type="int" name="NMIN">     0</i>
   <i name="EREF">      0.00000000</i>
   <separator name="electronic smearing" >
    <i type="int" name="ISMEAR">     0</i>
    <i name="SIGMA">      0.01000000</i>
    <i name="KSPACING">      0.50000000</i>
    <i type="logical" name="KGAMMA"> T  </i>
   </separator>
   <separator name="electronic projectors" >
    <i type="logical" name="LREAL"> T  </i>
    <v name="ROPT">     -0.00040000     -0.00040000     -0.00040000</v>
    <i type="int" name="LMAXPAW">  -100</i>
    <i type="int" name="LMAXMIX">     2</i>
    <i type="logical" name="NLSPLINE"> F  </i>
   </separator>
   <separator name="electronic startup" >
    <i type="int" name="ISTART">     1</i>
    <i type="int" name="ICHARG">    11</i>
    <i type="int" name="INIWAV">     1</i>
   </separator>
   <separator name="electronic spin" >
    <i type="int" name="ISPIN">     1</i>
    <i type="logical" name="LNONCOLLINEAR"> F  </i>
    <v name="MAGMOM">      1.00000000      1.00000000      1.00000000      1.00000000      1.00000000      1.00000000      1.00000000      1.00000000      1.00000000      1.00000000      1.00000000      1.00000000      1.00000000      1.00000000      1.00000000      1.00000000      1.00000000      1.00000000      1.00000000      1.00000000
      1.00000000      1.00000000      1.00000000      1.00000000      1.00000000      1.00000000      1.00000000      1.00000000      1.00000000      1.00000000      1.00000000      1.00000000      1.00000000      1.00000000      1.00000000      1.00000000      1.00000000      1.00000000      1.00000000      1.00000000
      1.00000000      1.00000000      1.00000000      1.00000000      1.00000000      1.00000000      1.00000000      1.00000000      1.00000000      1.00000000      1.00000000      1.00000000      1.00000000      1.00000000      1.00000000      1.00000000      1.00000000      1.00000000      1.00000000      1.00000000
      1.00000000      1.00000000      1.00000000      1.00000000      1.00000000      1.00000000      1.00000000      1.00000000      1.00000000      1.00000000      1.00000000      1.00000000      1.00000000      1.00000000      1.00000000      1.00000000      1.00000000      1.00000000      1.00000000      1.00000000
      1.00000000      1.00000000      1.00000000      1.00000000      1.00000000      1.00000000      1.00000000      1.00000000      1.00000000      1.00000000      1.00000000      1.00000000      1.00000000      1.00000000      1.00000000      1.00000000      1.00000000      1.00000000      1.00000000      1.00000000
      1.00000000      1.00000000      1.00000000      1.00000000      1.00000000      1.00000000      1.00000000      1.00000000</v>
    <i name="NUPDOWN">     -1.00000000</i>
    <i type="logical" name="LSORBIT"> F  </i>
    <v name="SAXIS">      0.00000000      0.00000000      1.00000000</v>
    <i type="logical" name="LSPIRAL"> F  </i>
    <v name="QSPIRAL">      0.00000000      0.00000000      0.00000000</v>
    <i type="logical" name="LZEROZ"> F  </i>
   </separator>
   <separator name="electronic exchange-correlation" >
    <i type="logical" name="LASPH"> F  </i>
    <i type="logical" name="LMETAGGA"> F  </i>
   </separator>
   <separator name="electronic convergence" >
    <i type="int" name="NELM">   200</i>
    <i type="int" name="NELMDL">     0</i>
    <i type="int" name="NELMIN">     2</i>
    <i name="ENINI">    500.00000000</i>
    <separator name="electronic convergence detail" >
     <i type="logical" name="LDIAG"> T  </i>
     <i type="logical" name="LSUBROT"> F  </i>
     <i name="WEIMIN">      0.00000000</i>
     <i name="EBREAK">      0.00000001</i>
     <i name="DEPER">      0.30000000</i>
     <i type="int" name="NRMM">     4</i>
     <i name="TIME">      0.40000000</i>
    </separator>
   </separator>
   <separator name="electronic mixer" >
    <i name="AMIX">      0.40000000</i>
    <i name="BMIX">      1.00000000</i>
    <i name="AMIN">      0.10000000</i>
    <i name="AMIX_MAG">      1.60000000</i>
    <i name="BMIX_MAG">      1.00000000</i>
    <separator name="electronic mixer details" >
     <i type="int" name="IMIX">     4</i>
     <i type="logical" name="MIXFIRST"> F  </i>
     <i type="int" name="MAXMIX">   -45</i>
     <i name="WC">    100.00000000</i>
     <i type="int" name="INIMIX">     1</i>
     <i type="int" name="MIXPRE">     1</i>
     <i type="int" name="MREMOVE">     5</i>
    </separator>
   </separator>
   <separator name="electronic dipolcorrection" >
    <i type="logical" name="LDIPOL"> F  </i>
    <i type="logical" name="LMONO"> F  </i>
    <i type="int" name="IDIPOL">     0</i>
    <i name="EPSILON">      1.00000000</i>
    <v name="DIPOL">   -100.00000000   -100.00000000   -100.00000000</v>
    <i name="EFIELD">      0.00000000</i>
   </separator>
  </separator>
  <separator name="grids" >
   <i type="int" name="NGX">   216</i>
   <i type="int" name="NGY">   216</i>
   <i type="int" name="NGZ">   150</i>
   <i type="int" name="NGXF">   320</i>
   <i type="int" name="NGYF">   320</i>
   <i type="int" name="NGZF">   224</i>
   <i type="logical" name="ADDGRID"> F  </i>
  </separator>
  <separator name="ionic" >
   <i type="int" name="NSW">     0</i>
   <i type="int" name="IBRION">    -1</i>
   <i type="int" name="MDALGO">     0</i>
   <i type="int" name="ISIF">     2</i>
   <i name="PSTRESS">      0.00000000</i>
   <i name="EDIFFG">     -0.01000000</i>
   <i type="int" name="NFREE">     0</i>
   <i name="POTIM">      0.30000000</i>
   <i name="SMASS">     -3.00000000</i>
   <i name="SCALEE">      1.00000000</i>
  </separator>
  <separator name="ionic md" >
   <i name="TEBEG">      0.00010000</i>
   <i name="TEEND">      0.00010000</i>
   <i type="int" name="NBLOCK">     1</i>
   <i type="int" name="KBLOCK">     1</i>
   <i type="int" name="NPACO">   256</i>
   <i name="APACO">     16.00000000</i>
  </separator>
  <separator name="symmetry" >
   <i type="int" name="ISYM">     2</i>
   <i name="SYMPREC">      0.00001000</i>
  </separator>
  <separator name="dos" >
   <i type="int" name="LORBIT">     0</i>
   <v name="RWIGS">     -1.00000000     -1.00000000     -1.00000000</v>
   <i type="int" name="NEDOS">   301</i>
   <i name="EMIN">     10.00000000</i>
   <i name="EMAX">    -10.00000000</i>
   <i name="EFERMI">      0.00000000</i>
  </separator>
  <separator name="writing" >
   <i type="int" name="NWRITE">     0</i>
   <i type="logical" name="LWAVE"> F  </i>
   <i type="logical" name="LDOWNSAMPLE"> F  </i>
   <i type="logical" name="LCHARG"> F  </i>
   <i type="logical" name="LPARD"> F  </i>
   <i type="logical" name="LVTOT"> F  </i>
   <i type="logical" name="LVHAR"> F  </i>
   <i type="logical" name="LELF"> F  </i>
   <i type="logical" name="LOPTICS"> F  </i>
   <v name="STM">      0.00000000      0.00000000      0.00000000      0.00000000      0.00000000      0.00000000      0.00000000</v>
  </separator>
  <separator name="performance" >
   <i type="int" name="NPAR">    16</i>
   <i type="int" name="NSIM">     4</i>
   <i type="int" name="NBLK">    -1</i>
   <i type="logical" name="LPLANE"> T  </i>
   <i type="logical" name="LSCALAPACK"> T  </i>
   <i type="logical" name="LSCAAWARE"> F  </i>
   <i type="logical" name="LSCALU"> F  </i>
   <i type="logical" name="LASYNC"> F  </i>
   <i type="logical" name="LORBITALREAL"> F  </i>
  </separator>
  <separator name="miscellaneous" >
   <i type="int" name="IDIOT">     3</i>
   <i type="int" name="ISPECIAL">     0</i>
   <i type="logical" name="LMUSIC"> F  </i>
   <v name="POMASS">     12.01100000     14.00100000      1.00000000</v>
   <v name="DARWINR">      0.00000000      0.00000000      0.00000000</v>
   <v name="DARWINV">      1.00000000      1.00000000      1.00000000</v>
   <i type="logical" name="LCORR"> T  </i>
  </separator>
  <i type="logical" name="GGA_COMPAT"> T  </i>
  <i type="logical" name="LBERRY"> F  </i>
  <i type="int" name="ICORELEVEL">     0</i>
  <i type="logical" name="LDAU"> F  </i>
  <i type="int" name="I_CONSTRAINED_M">     0</i>
  <separator name="electronic exchange-correlation" >
   <i type="string" name="GGA">PE</i>
   <i type="int" name="VOSKOWN">     0</i>
   <i type="logical" name="LHFCALC"> F  </i>
   <i type="string" name="PRECFOCK"></i>
   <i type="logical" name="LSYMGRAD"> F  </i>
   <i type="logical" name="LHFONE"> F  </i>
   <i type="logical" name="LRHFCALC"> F  </i>
   <i type="logical" name="LTHOMAS"> F  </i>
   <i type="logical" name="LMODELHF"> F  </i>
   <i name="ENCUT4O">     -1.00000000</i>
   <i type="int" name="EXXOEP">     0</i>
   <i type="int" name="FOURORBIT">     0</i>
   <i name="AEXX">      0.00000000</i>
   <i name="HFALPHA">      0.00000000</i>
   <i name="MCALPHA">      0.00000000</i>
   <i name="ALDAX">      1.00000000</i>
   <i name="AGGAX">      1.00000000</i>
   <i name="ALDAC">      1.00000000</i>
   <i name="AGGAC">      1.00000000</i>
   <i type="int" name="NKREDX">     1</i>
   <i type="int" name="NKREDY">     1</i>
   <i type="int" name="NKREDZ">     1</i>
   <i type="logical" name="SHIFTRED"> F  </i>
   <i type="logical" name="ODDONLY"> F  </i>
   <i type="logical" name="EVENONLY"> F  </i>
   <i type="int" name="LMAXFOCK">     0</i>
   <i type="int" name="NMAXFOCKAE">     0</i>
   <i type="logical" name="LFOCKAEDFT"> F  </i>
   <i name="HFSCREEN">      0.00000000</i>
   <i name="HFSCREENC">      0.00000000</i>
   <i type="int" name="NBANDSGWLOW">     0</i>
  </separator>
  <separator name="vdW DFT" >
   <i type="logical" name="LUSE_VDW"> F  </i>
   <i name="Zab_VDW">     -0.84910000</i>
   <i name="PARAM1">      0.12340000</i>
   <i name="PARAM2">      1.00000000</i>
   <i name="PARAM3">      0.00000000</i>
  </separator>
  <separator name="model GW" >
   <i type="int" name="MODEL_GW">     0</i>
   <i name="MODEL_EPS0">     80.63582089</i>
   <i name="MODEL_ALPHA">      1.00000000</i>
  </separator>
  <separator name="linear response parameters" >
   <i type="logical" name="LEPSILON"> F  </i>
   <i type="logical" name="LRPA"> F  </i>
   <i type="logical" name="LNABLA"> F  </i>
   <i type="logical" name="LVEL"> F  </i>
   <i type="int" name="KINTER">     0</i>
   <i name="CSHIFT">      0.10000000</i>
   <i name="OMEGAMAX">     -1.00000000</i>
   <i name="DEG_THRESHOLD">      0.00200000</i>
   <i name="RTIME">     -0.10000000</i>
   <i name="WPLASMAI">      0.00000000</i>
   <v name="DFIELD">      0.00000000      0.00000000      0.00000000</v>
   <v name="WPLASMA">      0.00000000      0.00000000      0.00000000      0.00000000      0.00000000      0.00000000      0.00000000      0.00000000      0.00000000</v>
  </separator>
  <separator name="orbital magnetization" >
   <i type="logical" name="NUCIND"> F  </i>
   <v name="MAGPOS">      0.00000000      0.00000000      0.00000000</v>
   <i type="logical" name="LNICSALL"> T  </i>
   <i type="logical" name="ORBITALMAG"> F  </i>
   <i type="logical" name="LMAGBLOCH"> F  </i>
   <i type="logical" name="LCHIMAG"> F  </i>
   <i type="logical" name="LGAUGE"> T  </i>
   <i type="int" name="MAGATOM">     0</i>
   <v name="MAGDIPOL">      0.00000000      0.00000000      0.00000000</v>
   <v name="AVECCONST">      0.00000000      0.00000000      0.00000000</v>
  </separator>
  <separator name="response functions" >
   <i type="logical" name="LADDER"> F  </i>
   <i type="logical" name="LRPAFORCE"> F  </i>
   <i type="logical" name="LFXC"> F  </i>
   <i type="logical" name="LHARTREE"> T  </i>
   <i type="int" name="IBSE">     0</i>
   <v type="int" name="KPOINT">    -1     0     0     0</v>
   <i type="logical" name="LTCTE"> F  </i>
   <i type="logical" name="LTETE"> F  </i>
   <i type="logical" name="LTRIPLET"> F  </i>
   <i type="logical" name="LFXCEPS"> F  </i>
   <i type="logical" name="LFXHEG"> F  </i>
   <i type="int" name="NATURALO">     2</i>
   <i type="logical" name="L2ORDER"> F  </i>
   <i type="logical" name="LMP2LT"> F  </i>
   <i type="logical" name="LUSEW"> F  </i>
   <i name="ENCUTGW">     -2.00000000</i>
   <i name="ENCUTGWSOFT">     -2.00000000</i>
   <i name="ENCUTLF">     -1.00000000</i>
   <i type="int" name="LMAXMP2">    -1</i>
   <i name="SCISSOR">      0.00000000</i>
   <i type="int" name="NOMEGA">     0</i>
   <i type="int" name="NOMEGAR">     0</i>
   <i type="int" name="NBANDSGW">    -1</i>
   <i type="int" name="NBANDSO">    -1</i>
   <i type="int" name="NBANDSV">    -1</i>
   <i type="int" name="NELM">   200</i>
   <i type="int" name="NELMHF">     1</i>
   <i type="int" name="DIM">     3</i>
   <i type="int" name="ANTIRES">     0</i>
   <i name="OMEGAMAX">    -30.00000000</i>
   <i name="OMEGAMIN">    -30.00000000</i>
   <i name="OMEGATL">   -200.00000000</i>
   <i type="int" name="OMEGAGRID">   140</i>
   <i name="CSHIFT">     -0.10000000</i>
   <i type="logical" name="SELFENERGY"> F  </i>
   <i type="logical" name="LSPECTRAL"> F  </i>
   <i type="logical" name="LSPECTRALGW"> F  </i>
   <i type="logical" name="LSINGLES"> F  </i>
   <i type="logical" name="LFERMIGW"> F  </i>
   <i type="logical" name="ODDONLYGW"> F  </i>
   <i type="logical" name="EVENONLYGW"> F  </i>
   <i type="int" name="NKREDLFX">     1</i>
   <i type="int" name="NKREDLFY">     1</i>
   <i type="int" name="NKREDLFZ">     1</i>
   <i type="int" name="MAXMEM">  2800</i>
   <i type="int" name="TELESCOPE">     0</i>
   <i type="int" name="TAUPAR">     1</i>
   <i type="int" name="OMEGAPAR">    -1</i>
   <i name="LAMBDA">      1.00000000</i>
  </separator>
  <separator name="External order field" >
   <i name="OFIELD_KAPPA">      0.00000000</i>
   <v name="OFIELD_K">      0.00000000      0.00000000      0.00000000</v>
   <i name="OFIELD_Q6_NEAR">      0.00000000</i>
   <i name="OFIELD_Q6_FAR">      0.00000000</i>
   <i name="OFIELD_A">      0.00000000</i>
  </separator>
  <separator name="solvation model" >
   <i type="logical" name="LSOL"> F  </i>
  </separator>
 </parameters>
 <atominfo>
  <atoms>     108 </atoms>
  <types>       3 </types>
  <array name="atoms" >
   <dimension dim="1">ion</dimension>
   <field type="string">element</field>
   <field type="int">atomtype</field>
   <set>
    <rc><c>C </c><c>   1</c></rc>
    <rc><c>C </c><c>   1</c></rc>
    <rc><c>C </c><c>   1</c></rc>
    <rc><c>C </c><c>   1</c></rc>
    <rc><c>C </c><c>   1</c></rc>
    <rc><c>C </c><c>   1</c></rc>
    <rc><c>C </c><c>   1</c></rc>
    <rc><c>C </c><c>   1</c></rc>
    <rc><c>C </c><c>   1</c></rc>
    <rc><c>C </c><c>   1</c></rc>
    <rc><c>C </c><c>   1</c></rc>
    <rc><c>C </c><c>   1</c></rc>
    <rc><c>C </c><c>   1</c></rc>
    <rc><c>C </c><c>   1</c></rc>
    <rc><c>C </c><c>   1</c></rc>
    <rc><c>C </c><c>   1</c></rc>
    <rc><c>C </c><c>   1</c></rc>
    <rc><c>C </c><c>   1</c></rc>
    <rc><c>C </c><c>   1</c></rc>
    <rc><c>C </c><c>   1</c></rc>
    <rc><c>C </c><c>   1</c></rc>
    <rc><c>C </c><c>   1</c></rc>
    <rc><c>C </c><c>   1</c></rc>
    <rc><c>C </c><c>   1</c></rc>
    <rc><c>C </c><c>   1</c></rc>
    <rc><c>C </c><c>   1</c></rc>
    <rc><c>C </c><c>   1</c></rc>
    <rc><c>C </c><c>   1</c></rc>
    <rc><c>C </c><c>   1</c></rc>
    <rc><c>C </c><c>   1</c></rc>
    <rc><c>C </c><c>   1</c></rc>
    <rc><c>C </c><c>   1</c></rc>
    <rc><c>C </c><c>   1</c></rc>
    <rc><c>C </c><c>   1</c></rc>
    <rc><c>C </c><c>   1</c></rc>
    <rc><c>C </c><c>   1</c></rc>
    <rc><c>C </c><c>   1</c></rc>
    <rc><c>C </c><c>   1</c></rc>
    <rc><c>C </c><c>   1</c></rc>
    <rc><c>C </c><c>   1</c></rc>
    <rc><c>C </c><c>   1</c></rc>
    <rc><c>C </c><c>   1</c></rc>
    <rc><c>C </c><c>   1</c></rc>
    <rc><c>C </c><c>   1</c></rc>
    <rc><c>C </c><c>   1</c></rc>
    <rc><c>C </c><c>   1</c></rc>
    <rc><c>C </c><c>   1</c></rc>
    <rc><c>C </c><c>   1</c></rc>
    <rc><c>C </c><c>   1</c></rc>
    <rc><c>C </c><c>   1</c></rc>
    <rc><c>C </c><c>   1</c></rc>
    <rc><c>C </c><c>   1</c></rc>
    <rc><c>C </c><c>   1</c></rc>
    <rc><c>C </c><c>   1</c></rc>
    <rc><c>N </c><c>   2</c></rc>
    <rc><c>N </c><c>   2</c></rc>
    <rc><c>N </c><c>   2</c></rc>
    <rc><c>N </c><c>   2</c></rc>
    <rc><c>N </c><c>   2</c></rc>
    <rc><c>N </c><c>   2</c></rc>
    <rc><c>N </c><c>   2</c></rc>
    <rc><c>N </c><c>   2</c></rc>
    <rc><c>N </c><c>   2</c></rc>
    <rc><c>N </c><c>   2</c></rc>
    <rc><c>N </c><c>   2</c></rc>
    <rc><c>N </c><c>   2</c></rc>
    <rc><c>H </c><c>   3</c></rc>
    <rc><c>H </c><c>   3</c></rc>
    <rc><c>H </c><c>   3</c></rc>
    <rc><c>H </c><c>   3</c></rc>
    <rc><c>H </c><c>   3</c></rc>
    <rc><c>H </c><c>   3</c></rc>
    <rc><c>H </c><c>   3</c></rc>
    <rc><c>H </c><c>   3</c></rc>
    <rc><c>H </c><c>   3</c></rc>
    <rc><c>H </c><c>   3</c></rc>
    <rc><c>H </c><c>   3</c></rc>
    <rc><c>H </c><c>   3</c></rc>
    <rc><c>H </c><c>   3</c></rc>
    <rc><c>H </c><c>   3</c></rc>
    <rc><c>H </c><c>   3</c></rc>
    <rc><c>H </c><c>   3</c></rc>
    <rc><c>H </c><c>   3</c></rc>
    <rc><c>H </c><c>   3</c></rc>
    <rc><c>H </c><c>   3</c></rc>
    <rc><c>H </c><c>   3</c></rc>
    <rc><c>H </c><c>   3</c></rc>
    <rc><c>H </c><c>   3</c></rc>
    <rc><c>H </c><c>   3</c></rc>
    <rc><c>H </c><c>   3</c></rc>
    <rc><c>H </c><c>   3</c></rc>
    <rc><c>H </c><c>   3</c></rc>
    <rc><c>H </c><c>   3</c></rc>
    <rc><c>H </c><c>   3</c></rc>
    <rc><c>H </c><c>   3</c></rc>
    <rc><c>H </c><c>   3</c></rc>
    <rc><c>H </c><c>   3</c></rc>
    <rc><c>H </c><c>   3</c></rc>
    <rc><c>H </c><c>   3</c></rc>
    <rc><c>H </c><c>   3</c></rc>
    <rc><c>H </c><c>   3</c></rc>
    <rc><c>H </c><c>   3</c></rc>
    <rc><c>H </c><c>   3</c></rc>
    <rc><c>H </c><c>   3</c></rc>
    <rc><c>H </c><c>   3</c></rc>
    <rc><c>H </c><c>   3</c></rc>
    <rc><c>H </c><c>   3</c></rc>
    <rc><c>H </c><c>   3</c></rc>
   </set>
  </array>
  <array name="atomtypes" >
   <dimension dim="1">type</dimension>
   <field type="int">atomspertype</field>
   <field type="string">element</field>
   <field>mass</field>
   <field>valence</field>
   <field type="string">pseudopotential</field>
   <set>
    <rc><c>  54</c><c>C </c><c>     12.01100000</c><c>      4.00000000</c><c>  PAW_PBE C 08Apr2002                   </c></rc>
    <rc><c>  12</c><c>N </c><c>     14.00100000</c><c>      5.00000000</c><c>  PAW_PBE N 08Apr2002                   </c></rc>
    <rc><c>  42</c><c>H </c><c>      1.00000000</c><c>      1.00000000</c><c>  PAW_PBE H 15Jun2001                   </c></rc>
   </set>
  </array>
 </atominfo>
 <structure name="initialpos" >
  <crystal>
   <varray name="basis" >
    <v>      28.97416549       0.05041778       0.00000000 </v>
    <v>     -14.44354398      25.02209000       0.00000000 </v>
    <v>       0.00000000       0.00000000      20.00000000 </v>
   </varray>
   <i name="volume">  14514.44776041 </i>
   <varray name="rec_basis" >
    <v>       0.03447887       0.01990230       0.00000000 </v>
    <v>      -0.00006947       0.03992459       0.00000000 </v>
    <v>       0.00000000       0.00000000       0.05000000 </v>
   </varray>
  </crystal>
  <varray name="positions" >
   <v>       0.63918900       0.36112168       0.52673647 </v>
   <v>       0.61113038       0.30472972       0.52777096 </v>
   <v>       0.63915089       0.27690840       0.52867916 </v>
   <v>       0.69538563       0.30505263       0.52760581 </v>
   <v>       0.72302310       0.36089121       0.52657568 </v>
   <v>       0.69485612       0.38912352       0.52558761 </v>
   <v>       0.35531361       0.63273770       0.46765905 </v>
   <v>       0.38802253       0.68886535       0.46944694 </v>
   <v>       0.36484798       0.72127945       0.46913754 </v>
   <v>       0.30888109       0.69806007       0.46748726 </v>
   <v>       0.27667300       0.64249659       0.46596003 </v>
   <v>       0.29989687       0.60955138       0.46625968 </v>
   <v>       0.39090774       0.52640756       0.49185462 </v>
   <v>       0.46883741       0.49778259       0.49934634 </v>
   <v>       0.45574210       0.51698513       0.55812561 </v>
   <v>       0.41581659       0.53120058       0.55259722 </v>
   <v>       0.57812109       0.47720718       0.56808728 </v>
   <v>       0.53726407       0.49027512       0.56574154 </v>
   <v>       0.52230656       0.50911988       0.62345337 </v>
   <v>       0.48297027       0.52195101       0.61978486 </v>
   <v>       0.35127785       0.54517576       0.48294593 </v>
   <v>       0.13558278       0.60797639       0.49036380 </v>
   <v>       0.02901508       0.53098942       0.49892747 </v>
   <v>       0.06153950       0.54384623       0.55738028 </v>
   <v>       0.11570024       0.58324016       0.55128503 </v>
   <v>       0.89970106       0.42181333       0.56850966 </v>
   <v>       0.95345433       0.46276354       0.56585077 </v>
   <v>       0.98738315       0.47775308       0.62334318 </v>
   <v>       0.03950820       0.51683265       0.61924649 </v>
   <v>       0.19386570       0.64714479       0.48090421 </v>
   <v>       0.47071221       0.86235571       0.49842795 </v>
   <v>       0.50069981       0.96940983       0.50563337 </v>
   <v>       0.47977401       0.93694747       0.56401397 </v>
   <v>       0.46482969       0.88251079       0.55862040 </v>
   <v>       0.52131552       0.09989190       0.57299021 </v>
   <v>       0.50778342       0.04573853       0.57103564 </v>
   <v>       0.48737195       0.01182081       0.62845188 </v>
   <v>       0.47383591       0.95936019       0.62505857 </v>
   <v>       0.45155361       0.80384257       0.48934296 </v>
   <v>       0.40659267       0.50613430       0.43732831 </v>
   <v>       0.51091818       0.48423168       0.50320087 </v>
   <v>       0.56310157       0.45554675       0.45183719 </v>
   <v>       0.59182263       0.45979210       0.51096101 </v>
   <v>       0.63393211       0.44379763       0.51132088 </v>
   <v>       0.09936148       0.59279203       0.43630063 </v>
   <v>       0.97347960       0.48903285       0.50317860 </v>
   <v>       0.89265720       0.43668453       0.45228209 </v>
   <v>       0.86850351       0.40796056       0.51153647 </v>
   <v>       0.81058416       0.36577837       0.51226163 </v>
   <v>       0.49270565       0.89850108       0.44432324 </v>
   <v>       0.51487408       0.02530529       0.50914663 </v>
   <v>       0.54541582       0.10646740       0.45759601 </v>
   <v>       0.54016369       0.13107092       0.51608349 </v>
   <v>       0.55648075       0.18931219       0.51604074 </v>
   <v>       0.61014622       0.38753363       0.52843059 </v>
   <v>       0.77832038       0.39001353       0.52805499 </v>
   <v>       0.61281503       0.22147288       0.53214696 </v>
   <v>       0.37971724       0.60181495       0.46662802 </v>
   <v>       0.22154861       0.61836045       0.46346517 </v>
   <v>       0.39575735       0.77659605       0.46970240 </v>
   <v>       0.44369727       0.49213171       0.44028919 </v>
   <v>       0.52419095       0.46692821       0.44743914 </v>
   <v>       0.04826108       0.55612569       0.43979419 </v>
   <v>       0.94278980       0.47568389       0.44760224 </v>
   <v>       0.50727573       0.94980425       0.44714692 </v>
   <v>       0.53365986       0.05596606       0.45360722 </v>
   <v>       0.71651152       0.28267127       0.52818695 </v>
   <v>       0.71710445       0.43262118       0.52455249 </v>
   <v>       0.56775288       0.28364338       0.52853766 </v>
   <v>       0.57121777       0.36497003       0.51561762 </v>
   <v>       0.79458112       0.42875861       0.51386820 </v>
   <v>       0.63501101       0.20466479       0.51895451 </v>
   <v>       0.29152808       0.72395615       0.46681052 </v>
   <v>       0.27417058       0.56631940       0.46468551 </v>
   <v>       0.43113607       0.70618088       0.47040759 </v>
   <v>       0.41863711       0.62119268       0.48014203 </v>
   <v>       0.20161809       0.57906897       0.47575075 </v>
   <v>       0.37610002       0.79614566       0.48239744 </v>
   <v>       0.40503171       0.54629877       0.59654046 </v>
   <v>       0.54318009       0.51318081       0.67047054 </v>
   <v>       0.47174033       0.53648479       0.66378551 </v>
   <v>       0.59886472       0.48108335       0.61520602 </v>
   <v>       0.32325956       0.52251909       0.44229374 </v>
   <v>       0.32727036       0.53735312       0.52907610 </v>
   <v>       0.14178831       0.59374887       0.59492900 </v>
   <v>       0.97069428       0.45700928       0.67048029 </v>
   <v>       0.06542690       0.52796434       0.66301749 </v>
   <v>       0.88303542       0.40109061       0.61572768 </v>
   <v>       0.19923197       0.67563343       0.44074455 </v>
   <v>       0.21048403       0.67083307       0.52720433 </v>
   <v>       0.44835699       0.85646548       0.60223790 </v>
   <v>       0.48265359       0.02880617       0.67500066 </v>
   <v>       0.45797698       0.93348450       0.66880382 </v>
   <v>       0.51659046       0.11687263       0.61959730 </v>
   <v>       0.47536108       0.79840414       0.45028842 </v>
   <v>       0.45742222       0.78690956       0.53620645 </v>
   <v>       0.38723512       0.50135259       0.38872817 </v>
   <v>       0.57323123       0.44220995       0.40559809 </v>
   <v>       0.65400371       0.45255412       0.46194482 </v>
   <v>       0.66473575       0.46784183       0.54859884 </v>
   <v>       0.11370945       0.61218305       0.38764152 </v>
   <v>       0.86906745       0.42650185       0.40618455 </v>
   <v>       0.79926680       0.34485677       0.46338935 </v>
   <v>       0.80385873       0.33549556       0.55043280 </v>
   <v>       0.49837954       0.88385678       0.39619941 </v>
   <v>       0.55993120       0.13002108       0.41153325 </v>
   <v>       0.54733804       0.20051223       0.46678124 </v>
   <v>       0.53297457       0.19659734       0.55365056 </v>
  </varray>
 </structure>
 <calculation>
  <scstep>
   <time name="dav">  534.19  540.88</time>
   <time name="total">  534.43  541.14</time>
   <energy>
    <i name="alphaZ">     32.20412134 </i>
    <i name="ewald">  37092.37409806 </i>
    <i name="hartreedc"> -46587.68340290 </i>
    <i name="XCdc">   1102.89080631 </i>
    <i name="pawpsdc">  29165.34046228 </i>
    <i name="pawaedc"> -29220.50612973 </i>
    <i name="eentropy">     -0.00000000 </i>
    <i name="bandstr">  -3968.15309053 </i>
    <i name="atom">  11644.86301871 </i>
    <i name="e_fr_energy">   -738.67011645 </i>
    <i name="e_wo_entrp">   -738.67011645 </i>
    <i name="e_0_energy">   -738.67011645 </i>
   </energy>
  </scstep>
  <scstep>
   <time name="dav">  624.69  632.62</time>
   <time name="total">  624.70  632.62</time>
   <energy>
    <i name="e_fr_energy">   -739.08007984 </i>
    <i name="e_wo_entrp">   -739.08007984 </i>
    <i name="e_0_energy">   -739.08007984 </i>
   </energy>
  </scstep>
  <scstep>
   <time name="dav">  671.45  680.15</time>
   <time name="total">  671.45  680.15</time>
   <energy>
    <i name="e_fr_energy">   -739.09134458 </i>
    <i name="e_wo_entrp">   -739.09134458 </i>
    <i name="e_0_energy">   -739.09134458 </i>
   </energy>
  </scstep>
  <scstep>
   <time name="dav">  621.89  629.67</time>
   <time name="total">  621.89  629.68</time>
   <energy>
    <i name="e_fr_energy">   -739.09159725 </i>
    <i name="e_wo_entrp">   -739.09159725 </i>
    <i name="e_0_energy">   -739.09159725 </i>
   </energy>
  </scstep>
  <scstep>
   <time name="dav">  592.47  599.96</time>
   <time name="total">  592.47  599.96</time>
   <energy>
    <i name="e_fr_energy">   -739.09160873 </i>
    <i name="e_wo_entrp">   -739.09160873 </i>
    <i name="e_0_energy">   -739.09160873 </i>
   </energy>
  </scstep>
  <scstep>
   <time name="dav">  490.72  496.66</time>
   <time name="total">  490.72  496.66</time>
   <energy>
    <i name="alphaZ">     32.20412134 </i>
    <i name="ewald">  37092.37409806 </i>
    <i name="hartreedc"> -46587.68340290 </i>
    <i name="XCdc">   1102.89080631 </i>
    <i name="pawpsdc">  29165.34046228 </i>
    <i name="pawaedc"> -29220.50612973 </i>
    <i name="eentropy">     -0.00000000 </i>
    <i name="bandstr">  -3968.57458335 </i>
    <i name="atom">  11644.86301871 </i>
    <i name="e_fr_energy">   -739.09160928 </i>
    <i name="e_wo_entrp">   -739.09160928 </i>
    <i name="e_0_energy">   -739.09160928 </i>
   </energy>
  </scstep>
  <structure>
   <crystal>
    <varray name="basis" >
     <v>      28.97416549       0.05041778       0.00000000 </v>
     <v>     -14.44354398      25.02209000       0.00000000 </v>
     <v>       0.00000000       0.00000000      20.00000000 </v>
    </varray>
    <i name="volume">  14514.44776041 </i>
    <varray name="rec_basis" >
     <v>       0.03447887       0.01990230       0.00000000 </v>
     <v>      -0.00006947       0.03992459       0.00000000 </v>
     <v>       0.00000000       0.00000000       0.05000000 </v>
    </varray>
   </crystal>
   <varray name="positions" >
    <v>       0.63918900       0.36112168       0.52673647 </v>
    <v>       0.61113038       0.30472972       0.52777096 </v>
    <v>       0.63915089       0.27690840       0.52867916 </v>
    <v>       0.69538563       0.30505263       0.52760581 </v>
    <v>       0.72302310       0.36089121       0.52657568 </v>
    <v>       0.69485612       0.38912352       0.52558761 </v>
    <v>       0.35531361       0.63273770       0.46765905 </v>
    <v>       0.38802253       0.68886535       0.46944694 </v>
    <v>       0.36484798       0.72127945       0.46913754 </v>
    <v>       0.30888109       0.69806007       0.46748726 </v>
    <v>       0.27667300       0.64249659       0.46596003 </v>
    <v>       0.29989687       0.60955138       0.46625968 </v>
    <v>       0.39090774       0.52640756       0.49185462 </v>
    <v>       0.46883741       0.49778259       0.49934634 </v>
    <v>       0.45574210       0.51698513       0.55812561 </v>
    <v>       0.41581659       0.53120058       0.55259722 </v>
    <v>       0.57812109       0.47720718       0.56808728 </v>
    <v>       0.53726407       0.49027512       0.56574154 </v>
    <v>       0.52230656       0.50911988       0.62345337 </v>
    <v>       0.48297027       0.52195101       0.61978486 </v>
    <v>       0.35127785       0.54517576       0.48294593 </v>
    <v>       0.13558278       0.60797639       0.49036380 </v>
    <v>       0.02901508       0.53098942       0.49892747 </v>
    <v>       0.06153950       0.54384623       0.55738028 </v>
    <v>       0.11570024       0.58324016       0.55128503 </v>
    <v>       0.89970106       0.42181333       0.56850966 </v>
    <v>       0.95345433       0.46276354       0.56585077 </v>
    <v>       0.98738315       0.47775308       0.62334318 </v>
    <v>       0.03950820       0.51683265       0.61924649 </v>
    <v>       0.19386570       0.64714479       0.48090421 </v>
    <v>       0.47071221       0.86235571       0.49842795 </v>
    <v>       0.50069981       0.96940983       0.50563337 </v>
    <v>       0.47977401       0.93694747       0.56401397 </v>
    <v>       0.46482969       0.88251079       0.55862040 </v>
    <v>       0.52131552       0.09989190       0.57299021 </v>
    <v>       0.50778342       0.04573853       0.57103564 </v>
    <v>       0.48737195       0.01182081       0.62845188 </v>
    <v>       0.47383591       0.95936019       0.62505857 </v>
    <v>       0.45155361       0.80384257       0.48934296 </v>
    <v>       0.40659267       0.50613430       0.43732831 </v>
    <v>       0.51091818       0.48423168       0.50320087 </v>
    <v>       0.56310157       0.45554675       0.45183719 </v>
    <v>       0.59182263       0.45979210       0.51096101 </v>
    <v>       0.63393211       0.44379763       0.51132088 </v>
    <v>       0.09936148       0.59279203       0.43630063 </v>
    <v>       0.97347960       0.48903285       0.50317860 </v>
    <v>       0.89265720       0.43668453       0.45228209 </v>
    <v>       0.86850351       0.40796056       0.51153647 </v>
    <v>       0.81058416       0.36577837       0.51226163 </v>
    <v>       0.49270565       0.89850108       0.44432324 </v>
    <v>       0.51487408       0.02530529       0.50914663 </v>
    <v>       0.54541582       0.10646740       0.45759601 </v>
    <v>       0.54016369       0.13107092       0.51608349 </v>
    <v>       0.55648075       0.18931219       0.51604074 </v>
    <v>       0.61014622       0.38753363       0.52843059 </v>
    <v>       0.77832038       0.39001353       0.52805499 </v>
    <v>       0.61281503       0.22147288       0.53214696 </v>
    <v>       0.37971724       0.60181495       0.46662802 </v>
    <v>       0.22154861       0.61836045       0.46346517 </v>
    <v>       0.39575735       0.77659605       0.46970240 </v>
    <v>       0.44369727       0.49213171       0.44028919 </v>
    <v>       0.52419095       0.46692821       0.44743914 </v>
    <v>       0.04826108       0.55612569       0.43979419 </v>
    <v>       0.94278980       0.47568389       0.44760224 </v>
    <v>       0.50727573       0.94980425       0.44714692 </v>
    <v>       0.53365986       0.05596606       0.45360722 </v>
    <v>       0.71651152       0.28267127       0.52818695 </v>
    <v>       0.71710445       0.43262118       0.52455249 </v>
    <v>       0.56775288       0.28364338       0.52853766 </v>
    <v>       0.57121777       0.36497003       0.51561762 </v>
    <v>       0.79458112       0.42875861       0.51386820 </v>
    <v>       0.63501101       0.20466479       0.51895451 </v>
    <v>       0.29152808       0.72395615       0.46681052 </v>
    <v>       0.27417058       0.56631940       0.46468551 </v>
    <v>       0.43113607       0.70618088       0.47040759 </v>
    <v>       0.41863711       0.62119268       0.48014203 </v>
    <v>       0.20161809       0.57906897       0.47575075 </v>
    <v>       0.37610002       0.79614566       0.48239744 </v>
    <v>       0.40503171       0.54629877       0.59654046 </v>
    <v>       0.54318009       0.51318081       0.67047054 </v>
    <v>       0.47174033       0.53648479       0.66378551 </v>
    <v>       0.59886472       0.48108335       0.61520602 </v>
    <v>       0.32325956       0.52251909       0.44229374 </v>
    <v>       0.32727036       0.53735312       0.52907610 </v>
    <v>       0.14178831       0.59374887       0.59492900 </v>
    <v>       0.97069428       0.45700928       0.67048029 </v>
    <v>       0.06542690       0.52796434       0.66301749 </v>
    <v>       0.88303542       0.40109061       0.61572768 </v>
    <v>       0.19923197       0.67563343       0.44074455 </v>
    <v>       0.21048403       0.67083307       0.52720433 </v>
    <v>       0.44835699       0.85646548       0.60223790 </v>
    <v>       0.48265359       0.02880617       0.67500066 </v>
    <v>       0.45797698       0.93348450       0.66880382 </v>
    <v>       0.51659046       0.11687263       0.61959730 </v>
    <v>       0.47536108       0.79840414       0.45028842 </v>
    <v>       0.45742222       0.78690956       0.53620645 </v>
    <v>       0.38723512       0.50135259       0.38872817 </v>
    <v>       0.57323123       0.44220995       0.40559809 </v>
    <v>       0.65400371       0.45255412       0.46194482 </v>
    <v>       0.66473575       0.46784183       0.54859884 </v>
    <v>       0.11370945       0.61218305       0.38764152 </v>
    <v>       0.86906745       0.42650185       0.40618455 </v>
    <v>       0.79926680       0.34485677       0.46338935 </v>
    <v>       0.80385873       0.33549556       0.55043280 </v>
    <v>       0.49837954       0.88385678       0.39619941 </v>
    <v>       0.55993120       0.13002108       0.41153325 </v>
    <v>       0.54733804       0.20051223       0.46678124 </v>
    <v>       0.53297457       0.19659734       0.55365056 </v>
   </varray>
  </structure>
  <varray name="forces" >
   <v>       0.00126949       0.00189294      -0.00314932 </v>
   <v>      -0.00303960       0.00020984       0.00005339 </v>
   <v>       0.00338438       0.00193539      -0.00126183 </v>
   <v>      -0.00285011      -0.00062426      -0.00066586 </v>
   <v>       0.00027259       0.00034184       0.00113926 </v>
   <v>      -0.00711959       0.00209864       0.00014560 </v>
   <v>       0.00459156      -0.00447032       0.00052254 </v>
   <v>      -0.00133351      -0.00150746       0.00079987 </v>
   <v>       0.00309790       0.00207383      -0.00260378 </v>
   <v>       0.00488038      -0.00341520       0.00120238 </v>
   <v>      -0.00400869      -0.00671403      -0.00146832 </v>
   <v>       0.00306577      -0.00224633      -0.00029925 </v>
   <v>      -0.00135908      -0.00568808      -0.00095289 </v>
   <v>      -0.00034659      -0.00625503      -0.00470072 </v>
   <v>       0.00010157      -0.00526694      -0.00127529 </v>
   <v>       0.00352462       0.00074467      -0.00030249 </v>
   <v>       0.00124138       0.00173621       0.00285774 </v>
   <v>      -0.00238568      -0.00290149       0.00237331 </v>
   <v>      -0.00427047      -0.00111178      -0.00018355 </v>
   <v>       0.00027241      -0.00350279      -0.00057292 </v>
   <v>      -0.00544426       0.00025485      -0.00314204 </v>
   <v>       0.00083942      -0.00096391       0.00035616 </v>
   <v>       0.00047162       0.00137772       0.00000926 </v>
   <v>       0.00138160       0.00152713      -0.00170050 </v>
   <v>       0.00051068      -0.00146217      -0.00056935 </v>
   <v>       0.00007318       0.00150436       0.00018744 </v>
   <v>       0.00077668       0.00074237       0.00251603 </v>
   <v>      -0.00105803       0.00011503      -0.00416349 </v>
   <v>      -0.00103105       0.00124893      -0.00062889 </v>
   <v>      -0.00268207       0.00077966       0.00404728 </v>
   <v>      -0.00153463       0.00085178      -0.00287544 </v>
   <v>      -0.00798599      -0.00251112      -0.00091741 </v>
   <v>       0.00062853      -0.00255735      -0.00671302 </v>
   <v>       0.00064771      -0.00152551       0.00673013 </v>
   <v>      -0.00024031       0.00104303       0.00051890 </v>
   <v>       0.00095633       0.00092603       0.00257972 </v>
   <v>      -0.00250833       0.00061442       0.00715060 </v>
   <v>       0.00637923      -0.00256445       0.00440413 </v>
   <v>       0.00580658       0.00511798       0.00537267 </v>
   <v>       0.00704201      -0.00459795      -0.00058172 </v>
   <v>       0.00126965      -0.00040738      -0.00154667 </v>
   <v>       0.00422398       0.00075391       0.00381596 </v>
   <v>       0.00199928      -0.00281683      -0.00257737 </v>
   <v>       0.00479408      -0.00293997      -0.00095240 </v>
   <v>      -0.00207573       0.00063999       0.00229289 </v>
   <v>       0.00289013       0.00104214       0.00045195 </v>
   <v>      -0.00059192      -0.00041989       0.00010017 </v>
   <v>      -0.00170952       0.00239872      -0.00055019 </v>
   <v>       0.00692213      -0.00140174      -0.00247905 </v>
   <v>      -0.00190121      -0.00435571      -0.00308012 </v>
   <v>       0.00322138       0.00132650      -0.00567487 </v>
   <v>      -0.00018767       0.00708343       0.00047986 </v>
   <v>       0.00095652       0.00034234       0.00803848 </v>
   <v>      -0.00006179      -0.00047045       0.00210457 </v>
   <v>      -0.00882362      -0.00261083       0.00038129 </v>
   <v>      -0.00363703       0.00434115       0.00202952 </v>
   <v>       0.00157879      -0.00376594       0.00256110 </v>
   <v>      -0.00448163       0.00652694       0.00019357 </v>
   <v>       0.00430812       0.00091493       0.00069144 </v>
   <v>       0.00345807       0.00148839      -0.00148104 </v>
   <v>      -0.00889485       0.00148608      -0.00637806 </v>
   <v>       0.00221163       0.00440413       0.00244788 </v>
   <v>      -0.00145392       0.00213920      -0.00425628 </v>
   <v>      -0.00217758      -0.00006373      -0.00238538 </v>
   <v>      -0.00822966      -0.00054803       0.00031691 </v>
   <v>       0.00050862      -0.00363902       0.00153011 </v>
   <v>       0.00263550      -0.00132136      -0.00021259 </v>
   <v>       0.00268142      -0.00026391      -0.00097346 </v>
   <v>       0.00113381       0.00116156      -0.00191089 </v>
   <v>       0.00097667       0.00053916      -0.00125081 </v>
   <v>       0.00175686       0.00167158      -0.00015908 </v>
   <v>      -0.00273009       0.00167582       0.00003993 </v>
   <v>      -0.00375716       0.00413075      -0.00017217 </v>
   <v>       0.00000683       0.00443805      -0.00040956 </v>
   <v>      -0.00101246       0.00143497      -0.00081170 </v>
   <v>      -0.00056775       0.00078437      -0.00024070 </v>
   <v>      -0.00099210       0.00224160      -0.00149252 </v>
   <v>      -0.00734865       0.00320164       0.00127193 </v>
   <v>      -0.00240081       0.00069923       0.00758439 </v>
   <v>       0.00164775      -0.00365130      -0.00342812 </v>
   <v>      -0.00208103       0.00119678       0.00498132 </v>
   <v>       0.00365185      -0.00179011       0.00858191 </v>
   <v>       0.00429501       0.00013797      -0.00293399 </v>
   <v>       0.00148351      -0.00095344       0.00263967 </v>
   <v>      -0.00169757       0.00094949       0.00076715 </v>
   <v>      -0.00045921       0.00031538       0.00039033 </v>
   <v>       0.00035473       0.00200460       0.00245543 </v>
   <v>      -0.00132174       0.00163290       0.00116896 </v>
   <v>       0.00129628      -0.00152549      -0.00012326 </v>
   <v>       0.00096027      -0.00090729      -0.00162840 </v>
   <v>       0.00259826       0.00326327      -0.00155571 </v>
   <v>      -0.00004654      -0.00054413      -0.00045498 </v>
   <v>       0.00186918       0.00139209       0.00252702 </v>
   <v>       0.00321348       0.00173792       0.00197587 </v>
   <v>      -0.00088216       0.00015552      -0.00155920 </v>
   <v>      -0.00096015      -0.00159773      -0.00056461 </v>
   <v>      -0.00184056      -0.00122201      -0.00470891 </v>
   <v>       0.00361130      -0.00535920      -0.00697484 </v>
   <v>      -0.00038442       0.00266982       0.00072455 </v>
   <v>      -0.00289821       0.00085789      -0.00288537 </v>
   <v>      -0.00060889       0.00000225       0.00038407 </v>
   <v>      -0.00014894      -0.00014858       0.00091431 </v>
   <v>       0.00064086      -0.00001319      -0.00254945 </v>
   <v>      -0.00181833      -0.00117502       0.00111022 </v>
   <v>      -0.00279022       0.00254551       0.00087878 </v>
   <v>       0.00055801      -0.00039401       0.00177774 </v>
   <v>       0.00073851      -0.00006309      -0.00028611 </v>
   <v>       0.00450303       0.00139094      -0.00319979 </v>
  </varray>
  <varray name="stress" >
   <v>      -0.00006631       0.00717850      -0.00146013 </v>
   <v>       0.00717849       0.01116732       0.00063558 </v>
   <v>      -0.00146013       0.00063558      -0.13643018 </v>
  </varray>
  <energy>
   <i name="e_fr_energy">   -741.06453098 </i>
   <i name="e_wo_entrp">   -741.06453098 </i>
   <i name="e_0_energy">     -0.00000000 </i>
  </energy>
  <time name="totalsc"> 4177.40 4231.48</time>
  <eigenvalues>
   <array>
    <dimension dim="1">band</dimension>
    <dimension dim="2">kpoint</dimension>
    <dimension dim="3">spin</dimension>
    <field>eigene</field>
    <field>occ</field>
    <set>
     <set comment="spin 1">
      <set comment="kpoint 1">
       <r>  -23.6518    1.0000 </r>
       <r>  -23.6477    1.0000 </r>
       <r>  -23.6471    1.0000 </r>
       <r>  -23.2886    1.0000 </r>
       <r>  -23.2030    1.0000 </r>
       <r>  -23.1736    1.0000 </r>
       <r>  -23.1726    1.0000 </r>
       <r>  -22.9947    1.0000 </r>
       <r>  -22.9828    1.0000 </r>
       <r>  -22.9810    1.0000 </r>
       <r>  -22.8816    1.0000 </r>
       <r>  -22.8801    1.0000 </r>
       <r>  -20.9585    1.0000 </r>
       <r>  -20.9578    1.0000 </r>
       <r>  -20.9566    1.0000 </r>
       <r>  -20.4701    1.0000 </r>
       <r>  -20.4064    1.0000 </r>
       <r>  -20.0877    1.0000 </r>
       <r>  -20.0856    1.0000 </r>
       <r>  -20.0732    1.0000 </r>
       <r>  -20.0717    1.0000 </r>
       <r>  -19.7423    1.0000 </r>
       <r>  -19.4993    1.0000 </r>
       <r>  -19.0267    1.0000 </r>
       <r>  -19.0245    1.0000 </r>
       <r>  -18.6274    1.0000 </r>
       <r>  -18.2705    1.0000 </r>
       <r>  -18.2693    1.0000 </r>
       <r>  -18.2603    1.0000 </r>
       <r>  -18.0276    1.0000 </r>
       <r>  -18.0238    1.0000 </r>
       <r>  -17.5409    1.0000 </r>
       <r>  -17.5383    1.0000 </r>
       <r>  -17.1944    1.0000 </r>
       <r>  -16.7912    1.0000 </r>
       <r>  -16.7901    1.0000 </r>
       <r>  -16.4129    1.0000 </r>
       <r>  -16.3251    1.0000 </r>
       <r>  -16.3214    1.0000 </r>
       <r>  -15.8325    1.0000 </r>
       <r>  -15.8319    1.0000 </r>
       <r>  -15.8299    1.0000 </r>
       <r>  -15.7605    1.0000 </r>
       <r>  -15.7566    1.0000 </r>
       <r>  -15.7466    1.0000 </r>
       <r>  -15.1360    1.0000 </r>
       <r>  -15.1343    1.0000 </r>
       <r>  -15.0353    1.0000 </r>
       <r>  -14.6896    1.0000 </r>
       <r>  -14.6857    1.0000 </r>
       <r>  -14.6606    1.0000 </r>
       <r>  -14.2975    1.0000 </r>
       <r>  -14.2945    1.0000 </r>
       <r>  -14.1488    1.0000 </r>
       <r>  -14.1484    1.0000 </r>
       <r>  -13.6316    1.0000 </r>
       <r>  -13.3568    1.0000 </r>
       <r>  -13.1158    1.0000 </r>
       <r>  -13.1124    1.0000 </r>
       <r>  -12.9182    1.0000 </r>
       <r>  -12.9000    1.0000 </r>
       <r>  -12.8987    1.0000 </r>
       <r>  -12.8936    1.0000 </r>
       <r>  -12.7929    1.0000 </r>
       <r>  -12.7918    1.0000 </r>
       <r>  -12.7838    1.0000 </r>
       <r>  -12.2130    1.0000 </r>
       <r>  -12.1921    1.0000 </r>
       <r>  -11.8474    1.0000 </r>
       <r>  -11.8455    1.0000 </r>
       <r>  -11.7447    1.0000 </r>
       <r>  -11.7428    1.0000 </r>
       <r>  -11.6491    1.0000 </r>
       <r>  -11.6302    1.0000 </r>
       <r>  -11.6287    1.0000 </r>
       <r>  -11.5241    1.0000 </r>
       <r>  -11.4268    1.0000 </r>
       <r>  -11.2934    1.0000 </r>
       <r>  -11.2631    1.0000 </r>
       <r>  -11.2608    1.0000 </r>
       <r>  -11.0341    1.0000 </r>
       <r>  -11.0325    1.0000 </r>
       <r>  -11.0209    1.0000 </r>
       <r>  -10.7961    1.0000 </r>
       <r>  -10.7948    1.0000 </r>
       <r>  -10.6641    1.0000 </r>
       <r>  -10.6606    1.0000 </r>
       <r>  -10.5344    1.0000 </r>
       <r>  -10.3748    1.0000 </r>
       <r>  -10.3654    1.0000 </r>
       <r>  -10.3593    1.0000 </r>
       <r>  -10.3085    1.0000 </r>
       <r>  -10.3081    1.0000 </r>
       <r>  -10.2391    1.0000 </r>
       <r>  -10.0480    1.0000 </r>
       <r>  -10.0330    1.0000 </r>
       <r>  -10.0215    1.0000 </r>
       <r>   -9.9128    1.0000 </r>
       <r>   -9.9119    1.0000 </r>
       <r>   -9.7556    1.0000 </r>
       <r>   -9.6188    1.0000 </r>
       <r>   -9.6158    1.0000 </r>
       <r>   -9.6133    1.0000 </r>
       <r>   -9.5612    1.0000 </r>
       <r>   -9.5128    1.0000 </r>
       <r>   -9.5089    1.0000 </r>
       <r>   -9.4985    1.0000 </r>
       <r>   -9.4704    1.0000 </r>
       <r>   -9.4680    1.0000 </r>
       <r>   -9.3682    1.0000 </r>
       <r>   -9.3515    1.0000 </r>
       <r>   -9.3504    1.0000 </r>
       <r>   -9.3171    1.0000 </r>
       <r>   -9.3156    1.0000 </r>
       <r>   -9.3121    1.0000 </r>
       <r>   -9.1534    1.0000 </r>
       <r>   -8.8149    1.0000 </r>
       <r>   -8.6832    1.0000 </r>
       <r>   -8.6528    1.0000 </r>
       <r>   -8.6508    1.0000 </r>
       <r>   -8.5803    1.0000 </r>
       <r>   -8.3693    1.0000 </r>
       <r>   -8.3676    1.0000 </r>
       <r>   -8.3274    1.0000 </r>
       <r>   -8.3249    1.0000 </r>
       <r>   -8.2612    1.0000 </r>
       <r>   -8.2534    1.0000 </r>
       <r>   -8.2519    1.0000 </r>
       <r>   -8.2341    1.0000 </r>
       <r>   -8.2327    1.0000 </r>
       <r>   -8.2231    1.0000 </r>
       <r>   -7.2702    1.0000 </r>
       <r>   -7.2669    1.0000 </r>
       <r>   -7.2661    1.0000 </r>
       <r>   -7.2433    1.0000 </r>
       <r>   -7.2329    1.0000 </r>
       <r>   -7.2039    1.0000 </r>
       <r>   -7.1984    1.0000 </r>
       <r>   -7.1924    1.0000 </r>
       <r>   -7.1212    1.0000 </r>
       <r>   -7.1210    1.0000 </r>
       <r>   -5.9848    1.0000 </r>
       <r>   -5.9616    1.0000 </r>
       <r>   -5.9589    1.0000 </r>
       <r>   -5.7304    1.0000 </r>
       <r>   -5.7272    1.0000 </r>
       <r>   -5.7255    1.0000 </r>
       <r>   -5.7169    1.0000 </r>
       <r>   -5.7016    1.0000 </r>
       <r>   -5.7005    1.0000 </r>
       <r>   -5.3075    1.0000 </r>
       <r>   -5.3023    1.0000 </r>
       <r>   -5.2980    1.0000 </r>
       <r>   -5.0584    1.0000 </r>
       <r>   -5.0345    1.0000 </r>
       <r>   -4.2124    1.0000 </r>
       <r>   -4.2079    1.0000 </r>
       <r>   -4.2011    1.0000 </r>
       <r>   -4.1982    1.0000 </r>
       <r>   -2.2873    0.0000 </r>
       <r>   -2.2860    0.0000 </r>
       <r>   -2.2808    0.0000 </r>
       <r>   -2.2776    0.0000 </r>
       <r>   -2.2701    0.0000 </r>
       <r>   -2.2650    0.0000 </r>
       <r>   -1.2270    0.0000 </r>
       <r>   -1.2262    0.0000 </r>
       <r>   -1.2138    0.0000 </r>
       <r>   -0.6508    0.0000 </r>
       <r>   -0.6482    0.0000 </r>
       <r>   -0.6434    0.0000 </r>
       <r>   -0.4574    0.0000 </r>
       <r>   -0.3087    0.0000 </r>
       <r>   -0.2788    0.0000 </r>
       <r>   -0.2776    0.0000 </r>
       <r>   -0.1568    0.0000 </r>
       <r>   -0.1551    0.0000 </r>
       <r>   -0.0756    0.0000 </r>
       <r>   -0.0727    0.0000 </r>
       <r>   -0.0352    0.0000 </r>
       <r>   -0.0306    0.0000 </r>
       <r>   -0.0210    0.0000 </r>
       <r>    0.0362    0.0000 </r>
       <r>    0.0405    0.0000 </r>
       <r>    0.1744    0.0000 </r>
       <r>    0.2481    0.0000 </r>
       <r>    0.2528    0.0000 </r>
       <r>    0.2940    0.0000 </r>
       <r>    0.2995    0.0000 </r>
       <r>    0.3010    0.0000 </r>
       <r>    0.3726    0.0000 </r>
       <r>    0.4137    0.0000 </r>
       <r>    0.4402    0.0000 </r>
       <r>    0.4421    0.0000 </r>
       <r>    0.4698    0.0000 </r>
       <r>    0.5156    0.0000 </r>
       <r>    0.5308    0.0000 </r>
       <r>    0.5326    0.0000 </r>
       <r>    0.6241    0.0000 </r>
       <r>    0.6299    0.0000 </r>
       <r>    0.6352    0.0000 </r>
       <r>    0.6670    0.0000 </r>
       <r>    0.6699    0.0000 </r>
       <r>    0.7173    0.0000 </r>
       <r>    0.7497    0.0000 </r>
       <r>    0.7730    0.0000 </r>
       <r>    0.7753    0.0000 </r>
       <r>    0.8252    0.0000 </r>
       <r>    0.8375    0.0000 </r>
       <r>    0.8422    0.0000 </r>
       <r>    0.8760    0.0000 </r>
       <r>    0.9215    0.0000 </r>
       <r>    0.9286    0.0000 </r>
       <r>    0.9300    0.0000 </r>
       <r>    0.9365    0.0000 </r>
       <r>    0.9633    0.0000 </r>
       <r>    0.9636    0.0000 </r>
       <r>    1.0427    0.0000 </r>
       <r>    1.0694    0.0000 </r>
       <r>    1.0758    0.0000 </r>
       <r>    1.0782    0.0000 </r>
       <r>    1.1513    0.0000 </r>
       <r>    1.1540    0.0000 </r>
       <r>    1.1765    0.0000 </r>
      </set>
      <set comment="kpoint 2">
       <r>  -23.6517    1.0000 </r>
       <r>  -23.6477    1.0000 </r>
       <r>  -23.6471    1.0000 </r>
       <r>  -23.2886    1.0000 </r>
       <r>  -23.2036    1.0000 </r>
       <r>  -23.1733    1.0000 </r>
       <r>  -23.1723    1.0000 </r>
       <r>  -22.9963    1.0000 </r>
       <r>  -22.9822    1.0000 </r>
       <r>  -22.9801    1.0000 </r>
       <r>  -22.8817    1.0000 </r>
       <r>  -22.8801    1.0000 </r>
       <r>  -20.9585    1.0000 </r>
       <r>  -20.9578    1.0000 </r>
       <r>  -20.9566    1.0000 </r>
       <r>  -20.4700    1.0000 </r>
       <r>  -20.4065    1.0000 </r>
       <r>  -20.0877    1.0000 </r>
       <r>  -20.0856    1.0000 </r>
       <r>  -20.0732    1.0000 </r>
       <r>  -20.0717    1.0000 </r>
       <r>  -19.7420    1.0000 </r>
       <r>  -19.4998    1.0000 </r>
       <r>  -19.0265    1.0000 </r>
       <r>  -19.0241    1.0000 </r>
       <r>  -18.6281    1.0000 </r>
       <r>  -18.2704    1.0000 </r>
       <r>  -18.2693    1.0000 </r>
       <r>  -18.2603    1.0000 </r>
       <r>  -18.0274    1.0000 </r>
       <r>  -18.0232    1.0000 </r>
       <r>  -17.5411    1.0000 </r>
       <r>  -17.5392    1.0000 </r>
       <r>  -17.1933    1.0000 </r>
       <r>  -16.7916    1.0000 </r>
       <r>  -16.7902    1.0000 </r>
       <r>  -16.4126    1.0000 </r>
       <r>  -16.3251    1.0000 </r>
       <r>  -16.3214    1.0000 </r>
       <r>  -15.8325    1.0000 </r>
       <r>  -15.8319    1.0000 </r>
       <r>  -15.8299    1.0000 </r>
       <r>  -15.7605    1.0000 </r>
       <r>  -15.7566    1.0000 </r>
       <r>  -15.7466    1.0000 </r>
       <r>  -15.1359    1.0000 </r>
       <r>  -15.1342    1.0000 </r>
       <r>  -15.0355    1.0000 </r>
       <r>  -14.6896    1.0000 </r>
       <r>  -14.6856    1.0000 </r>
       <r>  -14.6606    1.0000 </r>
       <r>  -14.2974    1.0000 </r>
       <r>  -14.2944    1.0000 </r>
       <r>  -14.1491    1.0000 </r>
       <r>  -14.1484    1.0000 </r>
       <r>  -13.6312    1.0000 </r>
       <r>  -13.3575    1.0000 </r>
       <r>  -13.1154    1.0000 </r>
       <r>  -13.1122    1.0000 </r>
       <r>  -12.9184    1.0000 </r>
       <r>  -12.9000    1.0000 </r>
       <r>  -12.8986    1.0000 </r>
       <r>  -12.8936    1.0000 </r>
       <r>  -12.7929    1.0000 </r>
       <r>  -12.7918    1.0000 </r>
       <r>  -12.7839    1.0000 </r>
       <r>  -12.2130    1.0000 </r>
       <r>  -12.1922    1.0000 </r>
       <r>  -11.8474    1.0000 </r>
       <r>  -11.8454    1.0000 </r>
       <r>  -11.7448    1.0000 </r>
       <r>  -11.7428    1.0000 </r>
       <r>  -11.6491    1.0000 </r>
       <r>  -11.6303    1.0000 </r>
       <r>  -11.6287    1.0000 </r>
       <r>  -11.5239    1.0000 </r>
       <r>  -11.4269    1.0000 </r>
       <r>  -11.2934    1.0000 </r>
       <r>  -11.2632    1.0000 </r>
       <r>  -11.2609    1.0000 </r>
       <r>  -11.0341    1.0000 </r>
       <r>  -11.0325    1.0000 </r>
       <r>  -11.0209    1.0000 </r>
       <r>  -10.7961    1.0000 </r>
       <r>  -10.7948    1.0000 </r>
       <r>  -10.6642    1.0000 </r>
       <r>  -10.6607    1.0000 </r>
       <r>  -10.5341    1.0000 </r>
       <r>  -10.3747    1.0000 </r>
       <r>  -10.3656    1.0000 </r>
       <r>  -10.3593    1.0000 </r>
       <r>  -10.3086    1.0000 </r>
       <r>  -10.3082    1.0000 </r>
       <r>  -10.2387    1.0000 </r>
       <r>  -10.0483    1.0000 </r>
       <r>  -10.0330    1.0000 </r>
       <r>  -10.0214    1.0000 </r>
       <r>   -9.9128    1.0000 </r>
       <r>   -9.9120    1.0000 </r>
       <r>   -9.7554    1.0000 </r>
       <r>   -9.6190    1.0000 </r>
       <r>   -9.6158    1.0000 </r>
       <r>   -9.6132    1.0000 </r>
       <r>   -9.5610    1.0000 </r>
       <r>   -9.5128    1.0000 </r>
       <r>   -9.5090    1.0000 </r>
       <r>   -9.4984    1.0000 </r>
       <r>   -9.4705    1.0000 </r>
       <r>   -9.4680    1.0000 </r>
       <r>   -9.3682    1.0000 </r>
       <r>   -9.3524    1.0000 </r>
       <r>   -9.3505    1.0000 </r>
       <r>   -9.3171    1.0000 </r>
       <r>   -9.3160    1.0000 </r>
       <r>   -9.3108    1.0000 </r>
       <r>   -9.1536    1.0000 </r>
       <r>   -8.8149    1.0000 </r>
       <r>   -8.6832    1.0000 </r>
       <r>   -8.6528    1.0000 </r>
       <r>   -8.6509    1.0000 </r>
       <r>   -8.5803    1.0000 </r>
       <r>   -8.3693    1.0000 </r>
       <r>   -8.3676    1.0000 </r>
       <r>   -8.3273    1.0000 </r>
       <r>   -8.3248    1.0000 </r>
       <r>   -8.2613    1.0000 </r>
       <r>   -8.2535    1.0000 </r>
       <r>   -8.2519    1.0000 </r>
       <r>   -8.2343    1.0000 </r>
       <r>   -8.2327    1.0000 </r>
       <r>   -8.2229    1.0000 </r>
       <r>   -7.2702    1.0000 </r>
       <r>   -7.2669    1.0000 </r>
       <r>   -7.2659    1.0000 </r>
       <r>   -7.2433    1.0000 </r>
       <r>   -7.2330    1.0000 </r>
       <r>   -7.2042    1.0000 </r>
       <r>   -7.1984    1.0000 </r>
       <r>   -7.1921    1.0000 </r>
       <r>   -7.1212    1.0000 </r>
       <r>   -7.1210    1.0000 </r>
       <r>   -5.9847    1.0000 </r>
       <r>   -5.9616    1.0000 </r>
       <r>   -5.9589    1.0000 </r>
       <r>   -5.7304    1.0000 </r>
       <r>   -5.7273    1.0000 </r>
       <r>   -5.7255    1.0000 </r>
       <r>   -5.7169    1.0000 </r>
       <r>   -5.7017    1.0000 </r>
       <r>   -5.7005    1.0000 </r>
       <r>   -5.3075    1.0000 </r>
       <r>   -5.3023    1.0000 </r>
       <r>   -5.2980    1.0000 </r>
       <r>   -5.0583    1.0000 </r>
       <r>   -5.0345    1.0000 </r>
       <r>   -4.2124    1.0000 </r>
       <r>   -4.2079    1.0000 </r>
       <r>   -4.2011    1.0000 </r>
       <r>   -4.1982    1.0000 </r>
       <r>   -2.2873    0.0000 </r>
       <r>   -2.2860    0.0000 </r>
       <r>   -2.2808    0.0000 </r>
       <r>   -2.2776    0.0000 </r>
       <r>   -2.2701    0.0000 </r>
       <r>   -2.2650    0.0000 </r>
       <r>   -1.2270    0.0000 </r>
       <r>   -1.2262    0.0000 </r>
       <r>   -1.2139    0.0000 </r>
       <r>   -0.6507    0.0000 </r>
       <r>   -0.6482    0.0000 </r>
       <r>   -0.6434    0.0000 </r>
       <r>   -0.4574    0.0000 </r>
       <r>   -0.3096    0.0000 </r>
       <r>   -0.2789    0.0000 </r>
       <r>   -0.2767    0.0000 </r>
       <r>   -0.1567    0.0000 </r>
       <r>   -0.1551    0.0000 </r>
       <r>   -0.0756    0.0000 </r>
       <r>   -0.0727    0.0000 </r>
       <r>   -0.0352    0.0000 </r>
       <r>   -0.0308    0.0000 </r>
       <r>   -0.0210    0.0000 </r>
       <r>    0.0361    0.0000 </r>
       <r>    0.0404    0.0000 </r>
       <r>    0.1742    0.0000 </r>
       <r>    0.2480    0.0000 </r>
       <r>    0.2519    0.0000 </r>
       <r>    0.2933    0.0000 </r>
       <r>    0.2998    0.0000 </r>
       <r>    0.3024    0.0000 </r>
       <r>    0.3728    0.0000 </r>
       <r>    0.4137    0.0000 </r>
       <r>    0.4402    0.0000 </r>
       <r>    0.4421    0.0000 </r>
       <r>    0.4700    0.0000 </r>
       <r>    0.5155    0.0000 </r>
       <r>    0.5311    0.0000 </r>
       <r>    0.5327    0.0000 </r>
       <r>    0.6224    0.0000 </r>
       <r>    0.6299    0.0000 </r>
       <r>    0.6363    0.0000 </r>
       <r>    0.6671    0.0000 </r>
       <r>    0.6702    0.0000 </r>
       <r>    0.7173    0.0000 </r>
       <r>    0.7494    0.0000 </r>
       <r>    0.7729    0.0000 </r>
       <r>    0.7750    0.0000 </r>
       <r>    0.8246    0.0000 </r>
       <r>    0.8381    0.0000 </r>
       <r>    0.8426    0.0000 </r>
       <r>    0.8764    0.0000 </r>
       <r>    0.9190    0.0000 </r>
       <r>    0.9269    0.0000 </r>
       <r>    0.9313    0.0000 </r>
       <r>    0.9393    0.0000 </r>
       <r>    0.9634    0.0000 </r>
       <r>    0.9637    0.0000 </r>
       <r>    1.0430    0.0000 </r>
       <r>    1.0687    0.0000 </r>
       <r>    1.0756    0.0000 </r>
       <r>    1.0783    0.0000 </r>
       <r>    1.1501    0.0000 </r>
       <r>    1.1541    0.0000 </r>
       <r>    1.1763    0.0000 </r>
      </set>
      <set comment="kpoint 3">
       <r>  -23.6517    1.0000 </r>
       <r>  -23.6477    1.0000 </r>
       <r>  -23.6471    1.0000 </r>
       <r>  -23.2884    1.0000 </r>
       <r>  -23.2053    1.0000 </r>
       <r>  -23.1730    1.0000 </r>
       <r>  -23.1707    1.0000 </r>
       <r>  -22.9997    1.0000 </r>
       <r>  -22.9819    1.0000 </r>
       <r>  -22.9771    1.0000 </r>
       <r>  -22.8818    1.0000 </r>
       <r>  -22.8802    1.0000 </r>
       <r>  -20.9585    1.0000 </r>
       <r>  -20.9578    1.0000 </r>
       <r>  -20.9566    1.0000 </r>
       <r>  -20.4698    1.0000 </r>
       <r>  -20.4068    1.0000 </r>
       <r>  -20.0877    1.0000 </r>
       <r>  -20.0856    1.0000 </r>
       <r>  -20.0732    1.0000 </r>
       <r>  -20.0717    1.0000 </r>
       <r>  -19.7411    1.0000 </r>
       <r>  -19.5014    1.0000 </r>
       <r>  -19.0261    1.0000 </r>
       <r>  -19.0225    1.0000 </r>
       <r>  -18.6303    1.0000 </r>
       <r>  -18.2703    1.0000 </r>
       <r>  -18.2692    1.0000 </r>
       <r>  -18.2603    1.0000 </r>
       <r>  -18.0271    1.0000 </r>
       <r>  -18.0212    1.0000 </r>
       <r>  -17.5436    1.0000 </r>
       <r>  -17.5403    1.0000 </r>
       <r>  -17.1901    1.0000 </r>
       <r>  -16.7931    1.0000 </r>
       <r>  -16.7903    1.0000 </r>
       <r>  -16.4120    1.0000 </r>
       <r>  -16.3254    1.0000 </r>
       <r>  -16.3215    1.0000 </r>
[...]
       <r>   -20.6143     0.0000    30.0000 </r>
       <r>   -20.5232     0.0000    30.0000 </r>
       <r>   -20.4322    25.9051    32.3584 </r>
       <r>   -20.3412     9.4381    34.0000 </r>
       <r>   -20.2501     0.0000    34.0000 </r>
       <r>   -20.1591     0.0000    34.0000 </r>
       <r>   -20.0680    76.7442    40.9869 </r>
       <r>   -19.9770     0.0000    42.0000 </r>
       <r>   -19.8860     0.0000    42.0000 </r>
       <r>   -19.7949     0.0000    42.0000 </r>
       <r>   -19.7039     8.4279    42.7673 </r>
       <r>   -19.6128    16.6366    44.3842 </r>
       <r>   -19.5218    10.3714    45.5497 </r>
       <r>   -19.4307     3.6257    46.0000 </r>
       <r>   -19.3397     0.0000    46.0000 </r>
       <r>   -19.2487     0.0000    46.0000 </r>
       <r>   -19.1576     0.0000    46.0000 </r>
       <r>   -19.0666     0.0000    46.0000 </r>
       <r>   -18.9755    28.5333    48.5977 </r>
       <r>   -18.8845     7.9703    49.3933 </r>
       <r>   -18.7935     8.9491    50.3831 </r>
       <r>   -18.7024     8.5596    51.2820 </r>
       <r>   -18.6114     7.2842    51.9984 </r>
       <r>   -18.5203     0.0000    52.0000 </r>
       <r>   -18.4293     0.0000    52.0000 </r>
       <r>   -18.3382     0.0000    52.0000 </r>
       <r>   -18.2472    65.1494    57.9313 </r>
       <r>   -18.1562     0.0000    58.0000 </r>
       <r>   -18.0651     0.0000    58.0000 </r>
       <r>   -17.9741    28.1777    60.5653 </r>
       <r>   -17.8830     4.7000    61.0618 </r>
       <r>   -17.7920     9.1691    62.1051 </r>
       <r>   -17.7010     9.1724    63.0357 </r>
       <r>   -17.6099     3.9873    63.4314 </r>
       <r>   -17.5189    27.4293    65.9973 </r>
       <r>   -17.4278     0.0000    66.0000 </r>
       <r>   -17.3368     0.0000    66.0000 </r>
       <r>   -17.2458     0.0000    66.0000 </r>
       <r>   -17.1547     4.7382    66.4314 </r>
       <r>   -17.0637     4.2307    66.8854 </r>
       <r>   -16.9726    10.5383    67.8939 </r>
       <r>   -16.8816    11.6395    69.0624 </r>
       <r>   -16.7905    19.0753    70.8708 </r>
       <r>   -16.6995     0.0000    72.0000 </r>
       <r>   -16.6085     0.0000    72.0000 </r>
       <r>   -16.5174     0.0000    72.0000 </r>
       <r>   -16.4264     0.0712    72.0065 </r>
       <r>   -16.3353    36.3564    75.3164 </r>
       <r>   -16.2443    21.2416    78.0000 </r>
       <r>   -16.1533     0.0000    78.0000 </r>
       <r>   -16.0622     0.0000    78.0000 </r>
       <r>   -15.9712     0.0000    78.0000 </r>
       <r>   -15.8801     0.0000    78.0000 </r>
       <r>   -15.7891    65.9046    84.0000 </r>
       <r>   -15.6981    65.9037    90.0000 </r>
       <r>   -15.6070     0.0000    90.0000 </r>
       <r>   -15.5160     0.0000    90.0000 </r>
       <r>   -15.4249     0.0000    90.0000 </r>
       <r>   -15.3339     0.0000    90.0000 </r>
       <r>   -15.2428     0.0000    90.0000 </r>
       <r>   -15.1518     0.2300    90.0209 </r>
       <r>   -15.0608    56.0552    95.1243 </r>
       <r>   -14.9697     6.9011    96.0000 </r>
       <r>   -14.8787     0.0000    96.0000 </r>
       <r>   -14.7876     0.0000    96.0000 </r>
       <r>   -14.6966     3.2181    96.2930 </r>
       <r>   -14.6056    41.3713   102.0000 </r>
       <r>   -14.5145     0.0000   102.0000 </r>
       <r>   -14.4235     0.0000   102.0000 </r>
       <r>   -14.3324     0.0000   102.0000 </r>
       <r>   -14.2414    39.7635   105.6201 </r>
       <r>   -14.1503    30.4362   108.7096 </r>
       <r>   -14.0593     0.0000   110.0000 </r>
       <r>   -13.9683     0.0000   110.0000 </r>
       <r>   -13.8772     0.0000   110.0000 </r>
       <r>   -13.7862     0.0000   110.0000 </r>
       <r>   -13.6951     0.0000   110.0000 </r>
       <r>   -13.6041     6.4562   110.5878 </r>
       <r>   -13.5131    14.1865   111.9937 </r>
       <r>   -13.4220    13.5919   113.2379 </r>
       <r>   -13.3310     7.3140   114.0000 </r>
       <r>   -13.2399     0.0000   114.0000 </r>
       <r>   -13.1489     0.0000   114.0000 </r>
       <r>   -13.0579    30.5248   116.7790 </r>
       <r>   -12.9668    20.8011   118.7632 </r>
       <r>   -12.8758    75.8354   125.9749 </r>
       <r>   -12.7847    50.1323   130.5641 </r>
       <r>   -12.6937     0.0000   132.0000 </r>
       <r>   -12.6026     0.0000   132.0000 </r>
       <r>   -12.5116     0.0000   132.0000 </r>
       <r>   -12.4206     0.0000   132.0000 </r>
       <r>   -12.3295     0.0000   132.0000 </r>
       <r>   -12.2385     0.0013   132.0001 </r>
       <r>   -12.1474    43.9348   136.0000 </r>
       <r>   -12.0564     0.0000   136.0000 </r>
       <r>   -11.9654     0.0000   136.0000 </r>
       <r>   -11.8743     0.0034   136.0003 </r>
       <r>   -11.7833    50.4619   140.5944 </r>
       <r>   -11.6922    32.1607   144.0000 </r>
       <r>   -11.6012    65.9033   149.9999 </r>
       <r>   -11.5102     6.2635   150.5702 </r>
       <r>   -11.4191    34.5157   153.9476 </r>
       <r>   -11.3281     0.0000   154.0000 </r>
       <r>   -11.2370    65.9013   159.9997 </r>
       <r>   -11.1460     0.0000   160.0000 </r>
       <r>   -11.0549     0.0114   160.0010 </r>
       <r>   -10.9639    65.8927   166.0000 </r>
       <r>   -10.8729     0.0000   166.0000 </r>
       <r>   -10.7818    29.3711   168.6740 </r>
       <r>   -10.6908    24.6685   171.2570 </r>
       <r>   -10.5997    28.1531   174.0000 </r>
       <r>   -10.5087     7.2271   174.6580 </r>
       <r>   -10.4177    13.8482   176.0972 </r>
       <r>   -10.3266    73.9460   183.3131 </r>
       <r>   -10.2356    28.1989   186.2173 </r>
       <r>   -10.1445    16.4496   188.0000 </r>
       <r>   -10.0535    18.7631   189.7082 </r>
       <r>    -9.9624    43.9132   194.0000 </r>
       <r>    -9.8714    43.9361   198.0000 </r>
       <r>    -9.7804     0.0005   198.0000 </r>
       <r>    -9.6893    21.9142   199.9951 </r>
       <r>    -9.5983    52.7099   204.7988 </r>
       <r>    -9.5072    65.2189   211.3489 </r>
       <r>    -9.4162    64.4541   219.0959 </r>
       <r>    -9.3252    62.1852   224.8976 </r>
       <r>    -9.2341    20.4001   229.1524 </r>
       <r>    -9.1431    26.4285   231.9792 </r>
       <r>    -9.0520     0.0000   232.0000 </r>
       <r>    -8.9610     0.0000   232.0000 </r>
       <r>    -8.8700     0.0000   232.0000 </r>
       <r>    -8.7789    21.9679   234.0000 </r>
       <r>    -8.6879     5.8492   234.5325 </r>
       <r>    -8.5968    44.0120   240.0070 </r>
       <r>    -8.5058    21.8907   242.0000 </r>
       <r>    -8.4147     0.0001   242.0000 </r>
       <r>    -8.3237    59.9679   247.4596 </r>
       <r>    -8.2327   109.7821   258.7341 </r>
       <r>    -8.1416    19.6570   262.0000 </r>
       <r>    -8.0506     0.0000   262.0000 </r>
       <r>    -7.9595     0.0000   262.0000 </r>
       <r>    -7.8685     0.0000   262.0000 </r>
       <r>    -7.7775     0.0000   262.0000 </r>
       <r>    -7.6864     0.0000   262.0000 </r>
       <r>    -7.5954     0.0000   262.0000 </r>
       <r>    -7.5043     0.0000   262.0000 </r>
       <r>    -7.4133     0.0000   262.0000 </r>
       <r>    -7.3223     0.0000   262.0000 </r>
       <r>    -7.2312   108.5426   271.8819 </r>
       <r>    -7.1402    52.7844   278.0786 </r>
       <r>    -7.0491    38.2785   282.0000 </r>
       <r>    -6.9581     0.0000   282.0000 </r>
       <r>    -6.8670     0.0000   282.0000 </r>
       <r>    -6.7760     0.0000   282.0000 </r>
       <r>    -6.6850     0.0000   282.0000 </r>
       <r>    -6.5939     0.0000   282.0000 </r>
       <r>    -6.5029     0.0000   282.0000 </r>
       <r>    -6.4118     0.0000   282.0000 </r>
       <r>    -6.3208     0.0000   282.0000 </r>
       <r>    -6.2298     0.0000   282.0000 </r>
       <r>    -6.1387     0.0000   282.0000 </r>
       <r>    -6.0477     0.0000   282.0000 </r>
       <r>    -5.9566    56.2919   287.1249 </r>
       <r>    -5.8656     0.0000   288.0000 </r>
       <r>    -5.7745     0.0000   288.0000 </r>
       <r>    -5.6835   131.6066   299.9816 </r>
       <r>    -5.5925     0.0000   300.0000 </r>
       <r>    -5.5014     0.0000   300.0000 </r>
       <r>    -5.4104     0.0000   300.0000 </r>
       <r>    -5.3193     1.0388   300.0946 </r>
       <r>    -5.2283    64.8654   306.0000 </r>
       <r>    -5.1373     0.0000   306.0000 </r>
       <r>    -5.0462    22.0633   308.0087 </r>
       <r>    -4.9552     3.4737   310.0000 </r>
       <r>    -4.8641     0.0000   310.0000 </r>
       <r>    -4.7731     0.0000   310.0000 </r>
       <r>    -4.6821     0.0000   310.0000 </r>
       <r>    -4.5910     0.0000   310.0000 </r>
       <r>    -4.5000     0.0000   310.0000 </r>
       <r>    -4.4089     0.0000   310.0000 </r>
       <r>    -4.3179     0.0000   310.0000 </r>
       <r>    -4.2268     0.4563   310.0415 </r>
       <r>    -4.1358    87.4159   318.0000 </r>
       <r>    -4.0448     0.0000   318.0000 </r>
       <r>    -3.9537     0.0000   318.0000 </r>
       <r>    -3.8627     0.0000   318.0000 </r>
       <r>    -3.7716     0.0000   318.0000 </r>
       <r>    -3.6806     0.0000   318.0000 </r>
       <r>    -3.5896     0.0000   318.0000 </r>
       <r>    -3.4985     0.0000   318.0000 </r>
       <r>    -3.4075     0.0000   318.0000 </r>
       <r>    -3.3164     0.0000   318.0000 </r>
       <r>    -3.2254     0.0000   318.0000 </r>
       <r>    -3.1344     0.0000   318.0000 </r>
       <r>    -3.0433     0.0000   318.0000 </r>
       <r>    -2.9523     0.0000   318.0000 </r>
       <r>    -2.8612     0.0000   318.0000 </r>
       <r>    -2.7702     0.0000   318.0000 </r>
       <r>    -2.6791     0.0000   318.0000 </r>
       <r>    -2.5881     0.0000   318.0000 </r>
       <r>    -2.4971     0.0000   318.0000 </r>
       <r>    -2.4060     0.0000   318.0000 </r>
       <r>    -2.3150     0.0011   318.0001 </r>
       <r>    -2.2239   131.8072   330.0000 </r>
       <r>    -2.1329     0.0000   330.0000 </r>
       <r>    -2.0419     0.0000   330.0000 </r>
       <r>    -1.9508     0.0000   330.0000 </r>
       <r>    -1.8598     0.0000   330.0000 </r>
       <r>    -1.7687     0.0000   330.0000 </r>
       <r>    -1.6777     0.0000   330.0000 </r>
       <r>    -1.5866     0.0000   330.0000 </r>
       <r>    -1.4956     0.0000   330.0000 </r>
       <r>    -1.4046     0.0000   330.0000 </r>
       <r>    -1.3135     0.0000   330.0000 </r>
       <r>    -1.2225    33.1726   333.0201 </r>
       <r>    -1.1314     0.0000   336.0000 </r>
       <r>    -1.0404     0.0000   336.0000 </r>
       <r>    -0.9494     0.0000   336.0000 </r>
       <r>    -0.8583     0.0000   336.0000 </r>
       <r>    -0.7673     0.0000   336.0000 </r>
       <r>    -0.6762     0.0040   336.0004 </r>
       <r>    -0.5852    65.9001   342.0000 </r>
       <r>    -0.4942     0.0000   342.0000 </r>
       <r>    -0.4031    21.9681   344.0000 </r>
       <r>    -0.3121    20.2967   345.8478 </r>
       <r>    -0.2210    33.3797   349.0393 </r>
       <r>    -0.1300    39.4382   353.0636 </r>
       <r>    -0.0389    67.7412   359.8149 </r>
       <r>     0.0521    65.6530   367.9791 </r>
       <r>     0.1431     1.5093   368.1374 </r>
       <r>     0.2342    33.1190   372.0563 </r>
       <r>     0.3252    49.1178   377.1229 </r>
       <r>     0.4163    68.7848   383.7714 </r>
       <r>     0.5073    77.8170   391.0848 </r>
       <r>     0.5983    57.8132   397.6055 </r>
       <r>     0.6894    70.0062   405.0189 </r>
       <r>     0.7804    76.6656   412.9820 </r>
       <r>     0.8715    69.5803   420.3347 </r>
       <r>     0.9625    83.0641   429.0769 </r>
       <r>     1.0535    73.7771   436.7626 </r>
       <r>     1.1446    92.7743   446.2212 </r>
       <r>     1.2356     6.9496   448.0000 </r>
       <r>     1.3267     0.0000   448.0000 </r>
       <r>     1.4177     0.0000   448.0000 </r>
       <r>     1.5088     0.0000   448.0000 </r>
       <r>     1.5998     0.0000   448.0000 </r>
       <r>     1.6908     0.0000   448.0000 </r>
       <r>     1.7819     0.0000   448.0000 </r>
       <r>     1.8729     0.0000   448.0000 </r>
       <r>     1.9640     0.0000   448.0000 </r>
       <r>     2.0550     0.0000   448.0000 </r>
       <r>     2.1460     0.0000   448.0000 </r>
       <r>     2.2371     0.0000   448.0000 </r>
       <r>     2.3281     0.0000   448.0000 </r>
       <r>     2.4192     0.0000   448.0000 </r>
      </set>
     </set>
    </array>
   </total>
  </dos>
 </calculation>
 <structure name="finalpos" >
  <crystal>
   <varray name="basis" >
    <v>      28.97416549       0.05041778       0.00000000 </v>
    <v>     -14.44354398      25.02209000       0.00000000 </v>
    <v>       0.00000000       0.00000000      20.00000000 </v>
   </varray>
   <i name="volume">  14514.44776041 </i>
   <varray name="rec_basis" >
    <v>       0.03447887       0.01990230       0.00000000 </v>
    <v>      -0.00006947       0.03992459       0.00000000 </v>
    <v>       0.00000000       0.00000000       0.05000000 </v>
   </varray>
  </crystal>
  <varray name="positions" >
   <v>       0.63918900       0.36112168       0.52673647 </v>
   <v>       0.61113038       0.30472972       0.52777096 </v>
   <v>       0.63915089       0.27690840       0.52867916 </v>
   <v>       0.69538563       0.30505263       0.52760581 </v>
   <v>       0.72302310       0.36089121       0.52657568 </v>
   <v>       0.69485612       0.38912352       0.52558761 </v>
   <v>       0.35531361       0.63273770       0.46765905 </v>
   <v>       0.38802253       0.68886535       0.46944694 </v>
   <v>       0.36484798       0.72127945       0.46913754 </v>
   <v>       0.30888109       0.69806007       0.46748726 </v>
   <v>       0.27667300       0.64249659       0.46596003 </v>
   <v>       0.29989687       0.60955138       0.46625968 </v>
   <v>       0.39090774       0.52640756       0.49185462 </v>
   <v>       0.46883741       0.49778259       0.49934634 </v>
   <v>       0.45574210       0.51698513       0.55812561 </v>
   <v>       0.41581659       0.53120058       0.55259722 </v>
   <v>       0.57812109       0.47720718       0.56808728 </v>
   <v>       0.53726407       0.49027512       0.56574154 </v>
   <v>       0.52230656       0.50911988       0.62345337 </v>
   <v>       0.48297027       0.52195101       0.61978486 </v>
   <v>       0.35127785       0.54517576       0.48294593 </v>
   <v>       0.13558278       0.60797639       0.49036380 </v>
   <v>       0.02901508       0.53098942       0.49892747 </v>
   <v>       0.06153950       0.54384623       0.55738028 </v>
   <v>       0.11570024       0.58324016       0.55128503 </v>
   <v>       0.89970106       0.42181333       0.56850966 </v>
   <v>       0.95345433       0.46276354       0.56585077 </v>
   <v>       0.98738315       0.47775308       0.62334318 </v>
   <v>       0.03950820       0.51683265       0.61924649 </v>
   <v>       0.19386570       0.64714479       0.48090421 </v>
   <v>       0.47071221       0.86235571       0.49842795 </v>
   <v>       0.50069981       0.96940983       0.50563337 </v>
   <v>       0.47977401       0.93694747       0.56401397 </v>
   <v>       0.46482969       0.88251079       0.55862040 </v>
   <v>       0.52131552       0.09989190       0.57299021 </v>
   <v>       0.50778342       0.04573853       0.57103564 </v>
   <v>       0.48737195       0.01182081       0.62845188 </v>
   <v>       0.47383591       0.95936019       0.62505857 </v>
   <v>       0.45155361       0.80384257       0.48934296 </v>
   <v>       0.40659267       0.50613430       0.43732831 </v>
   <v>       0.51091818       0.48423168       0.50320087 </v>
   <v>       0.56310157       0.45554675       0.45183719 </v>
   <v>       0.59182263       0.45979210       0.51096101 </v>
   <v>       0.63393211       0.44379763       0.51132088 </v>
   <v>       0.09936148       0.59279203       0.43630063 </v>
   <v>       0.97347960       0.48903285       0.50317860 </v>
   <v>       0.89265720       0.43668453       0.45228209 </v>
   <v>       0.86850351       0.40796056       0.51153647 </v>
   <v>       0.81058416       0.36577837       0.51226163 </v>
   <v>       0.49270565       0.89850108       0.44432324 </v>
   <v>       0.51487408       0.02530529       0.50914663 </v>
   <v>       0.54541582       0.10646740       0.45759601 </v>
   <v>       0.54016369       0.13107092       0.51608349 </v>
   <v>       0.55648075       0.18931219       0.51604074 </v>
   <v>       0.61014622       0.38753363       0.52843059 </v>
   <v>       0.77832038       0.39001353       0.52805499 </v>
   <v>       0.61281503       0.22147288       0.53214696 </v>
   <v>       0.37971724       0.60181495       0.46662802 </v>
   <v>       0.22154861       0.61836045       0.46346517 </v>
   <v>       0.39575735       0.77659605       0.46970240 </v>
   <v>       0.44369727       0.49213171       0.44028919 </v>
   <v>       0.52419095       0.46692821       0.44743914 </v>
   <v>       0.04826108       0.55612569       0.43979419 </v>
   <v>       0.94278980       0.47568389       0.44760224 </v>
   <v>       0.50727573       0.94980425       0.44714692 </v>
   <v>       0.53365986       0.05596606       0.45360722 </v>
   <v>       0.71651152       0.28267127       0.52818695 </v>
   <v>       0.71710445       0.43262118       0.52455249 </v>
   <v>       0.56775288       0.28364338       0.52853766 </v>
   <v>       0.57121777       0.36497003       0.51561762 </v>
   <v>       0.79458112       0.42875861       0.51386820 </v>
   <v>       0.63501101       0.20466479       0.51895451 </v>
   <v>       0.29152808       0.72395615       0.46681052 </v>
   <v>       0.27417058       0.56631940       0.46468551 </v>
   <v>       0.43113607       0.70618088       0.47040759 </v>
   <v>       0.41863711       0.62119268       0.48014203 </v>
   <v>       0.20161809       0.57906897       0.47575075 </v>
   <v>       0.37610002       0.79614566       0.48239744 </v>
   <v>       0.40503171       0.54629877       0.59654046 </v>
   <v>       0.54318009       0.51318081       0.67047054 </v>
   <v>       0.47174033       0.53648479       0.66378551 </v>
   <v>       0.59886472       0.48108335       0.61520602 </v>
   <v>       0.32325956       0.52251909       0.44229374 </v>
   <v>       0.32727036       0.53735312       0.52907610 </v>
   <v>       0.14178831       0.59374887       0.59492900 </v>
   <v>       0.97069428       0.45700928       0.67048029 </v>
   <v>       0.06542690       0.52796434       0.66301749 </v>
   <v>       0.88303542       0.40109061       0.61572768 </v>
   <v>       0.19923197       0.67563343       0.44074455 </v>
   <v>       0.21048403       0.67083307       0.52720433 </v>
   <v>       0.44835699       0.85646548       0.60223790 </v>
   <v>       0.48265359       0.02880617       0.67500066 </v>
   <v>       0.45797698       0.93348450       0.66880382 </v>
   <v>       0.51659046       0.11687263       0.61959730 </v>
   <v>       0.47536108       0.79840414       0.45028842 </v>
   <v>       0.45742222       0.78690956       0.53620645 </v>
   <v>       0.38723512       0.50135259       0.38872817 </v>
   <v>       0.57323123       0.44220995       0.40559809 </v>
   <v>       0.65400371       0.45255412       0.46194482 </v>
   <v>       0.66473575       0.46784183       0.54859884 </v>
   <v>       0.11370945       0.61218305       0.38764152 </v>
   <v>       0.86906745       0.42650185       0.40618455 </v>
   <v>       0.79926680       0.34485677       0.46338935 </v>
   <v>       0.80385873       0.33549556       0.55043280 </v>
   <v>       0.49837954       0.88385678       0.39619941 </v>
   <v>       0.55993120       0.13002108       0.41153325 </v>
   <v>       0.54733804       0.20051223       0.46678124 </v>
   <v>       0.53297457       0.19659734       0.55365056 </v>
  </varray>
 </structure>
</modeling>
