<?xml version="1.0" encoding="ISO-8859-1"?>
<modeling>
 <generator>
  <i name="program" type="string">vasp </i>
  <i name="version" type="string">5.4.4.18Apr17-6-g9f103f2a35  </i>
  <i name="subversion" type="string">(build Jun 07 2020 16:50:00) complex            parallel </i>
  <i name="platform" type="string">LinuxIFC </i>
  <i name="date" type="string">2023 02 21 </i>
  <i name="time" type="string">17:35:23 </i>
 </generator>
 <incar>
  <i type="string" name="SYSTEM">Simulation for cell shape cell volume r</i>
  <i type="int" name="ISTART">     1</i>
  <i type="string" name="PREC">high</i>
  <i type="string" name="ALGO">48</i>
  <i type="int" name="ICHARG">    11</i>
  <i type="int" name="NELM">   200</i>
  <i type="int" name="IBRION">    -1</i>
  <i name="EDIFF">      0.00001000</i>
  <i name="EDIFFG">     -0.01000000</i>
  <i type="int" name="NSW">     0</i>
  <i type="int" name="ISIF">     2</i>
  <i name="ENCUT">    500.00000000</i>
  <i name="POTIM">      0.30000000</i>
  <i type="string" name="LREAL">A</i>
  <i type="int" name="ISMEAR">     0</i>
  <i name="SIGMA">      0.01000000</i>
  <i type="int" name="NWRITE">     0</i>
  <i type="logical" name="LWAVE"> F  </i>
  <i type="logical" name="LCHARG"> F  </i>
  <v type="int" name="KPOINT_BSE">    -1     0     0     0</v>
  <i type="int" name="NELM">   200</i>
  <i type="string" name="GGA">PE</i>
 </incar>
 <structure name="primitive_cell" >
  <crystal>
   <varray name="basis" >
    <v>      29.26085251       0.00000000       0.00000000 </v>
    <v>     -14.63042626      25.34064161       0.00000000 </v>
    <v>       0.00000000       0.00000000      20.00000000 </v>
   </varray>
   <i name="volume">  14829.77553459 </i>
   <varray name="rec_basis" >
    <v>       0.03417535       0.01973115       0.00000000 </v>
    <v>       0.00000000       0.03946230       0.00000000 </v>
    <v>       0.00000000       0.00000000       0.05000000 </v>
   </varray>
  </crystal>
  <varray name="positions" >
   <v>       0.02381036      -0.48809482      -0.43776578 </v>
   <v>       0.04356670      -0.47821665      -0.38910183 </v>
   <v>      -0.02903247       0.48548377      -0.43708293 </v>
   <v>       0.05343090      -0.47328455      -0.49696082 </v>
   <v>      -0.05319875       0.47340062      -0.49695097 </v>
   <v>       0.02380303      -0.48809848       0.44384953 </v>
   <v>       0.11194873      -0.44402564      -0.49695352 </v>
   <v>      -0.02904154       0.48547923       0.44317002 </v>
   <v>       0.04356852      -0.47821574       0.39518708 </v>
   <v>       0.14011438      -0.47129037      -0.49695909 </v>
   <v>       0.14011438      -0.38859525      -0.49695909 </v>
   <v>       0.11856968      -0.36708246      -0.49695086 </v>
   <v>       0.11856968       0.48565214      -0.49695086 </v>
   <v>      -0.11213945       0.44393028      -0.49694682 </v>
   <v>      -0.11844730       0.36716260      -0.49692705 </v>
   <v>      -0.11844730      -0.48560990      -0.49692705 </v>
   <v>      -0.14001300       0.38864610      -0.49694235 </v>
   <v>      -0.14001300       0.47134091      -0.49694235 </v>
   <v>       0.19503818      -0.36109920      -0.49699548 </v>
   <v>       0.19503818      -0.44386262      -0.49699548 </v>
   <v>       0.22311714      -0.38844143      -0.49703325 </v>
   <v>       0.21701559      -0.31811387      -0.49700274 </v>
   <v>       0.21701559      -0.46487054      -0.49700274 </v>
   <v>      -0.19494368       0.36114516      -0.49696769 </v>
   <v>      -0.19494368       0.44391117      -0.49696769 </v>
   <v>      -0.22303618       0.38848191      -0.49701071 </v>
   <v>      -0.21691496       0.31816107      -0.49696394 </v>
   <v>      -0.21691496       0.46492396      -0.49696394 </v>
   <v>       0.28149236      -0.35925382      -0.49711428 </v>
   <v>       0.30622176      -0.38755648      -0.49714840 </v>
   <v>       0.30622176      -0.30622176      -0.49714840 </v>
   <v>      -0.28146461       0.35926769      -0.49709211 </v>
   <v>       0.31811387      -0.21701559      -0.49700274 </v>
   <v>       0.31811387      -0.46487054      -0.49700274 </v>
   <v>      -0.30622197       0.30622197      -0.49711440 </v>
   <v>      -0.30622197       0.38755606      -0.49711440 </v>
   <v>       0.35925382      -0.35925382      -0.49711428 </v>
   <v>       0.35925382      -0.28149236      -0.49711428 </v>
   <v>       0.38755648      -0.30622176      -0.49714840 </v>
   <v>       0.36109920      -0.19503818      -0.49699548 </v>
   <v>       0.36109920      -0.44386262      -0.49699548 </v>
   <v>      -0.31816107       0.21691496      -0.49696394 </v>
   <v>      -0.31816107       0.46492396      -0.49696394 </v>
   <v>       0.38844143      -0.38844143      -0.49703325 </v>
   <v>       0.38844143      -0.22311714      -0.49703325 </v>
   <v>      -0.35926769       0.28146461      -0.49709211 </v>
   <v>      -0.35926769       0.35926769      -0.49709211 </v>
   <v>      -0.36114516       0.19494368      -0.49696769 </v>
   <v>      -0.36114516       0.44391117      -0.49696769 </v>
   <v>      -0.38755606       0.30622197      -0.49711440 </v>
   <v>       0.38859525      -0.47129037      -0.49695909 </v>
   <v>       0.38859525      -0.14011438      -0.49695909 </v>
   <v>       0.36708246      -0.11856968      -0.49695086 </v>
   <v>       0.36708246       0.48565214      -0.49695086 </v>
   <v>      -0.38848191       0.22303618      -0.49701071 </v>
   <v>      -0.38848191       0.38848191      -0.49701071 </v>
   <v>       0.44386262      -0.19503818      -0.49699548 </v>
   <v>       0.44386262      -0.36109920      -0.49699548 </v>
   <v>       0.46487054      -0.21701559      -0.49700274 </v>
   <v>       0.46487054      -0.31811387      -0.49700274 </v>
   <v>      -0.36716260       0.11844730      -0.49692705 </v>
   <v>      -0.36716260      -0.48560990      -0.49692705 </v>
   <v>      -0.38864610       0.14001300      -0.49694235 </v>
   <v>      -0.38864610       0.47134091      -0.49694235 </v>
   <v>       0.44402564      -0.11194873      -0.49695352 </v>
   <v>       0.44402564      -0.44402564      -0.49695352 </v>
   <v>       0.47129037      -0.38859525      -0.49695909 </v>
   <v>       0.47129037      -0.14011438      -0.49695909 </v>
   <v>      -0.44391117       0.19494368      -0.49696769 </v>
   <v>      -0.44391117       0.36114516      -0.49696769 </v>
   <v>      -0.46492396       0.21691496      -0.49696394 </v>
   <v>      -0.46492396       0.31816107      -0.49696394 </v>
   <v>      -0.44393028       0.11213945      -0.49694682 </v>
   <v>      -0.44393028       0.44393028      -0.49694682 </v>
   <v>       0.47328455      -0.47328455      -0.49696082 </v>
   <v>       0.47328455      -0.05343090      -0.49696082 </v>
   <v>      -0.48565214      -0.11856968      -0.49695086 </v>
   <v>      -0.48565214      -0.36708246      -0.49695086 </v>
   <v>      -0.47134091       0.14001300      -0.49694235 </v>
   <v>      -0.47134091       0.38864610      -0.49694235 </v>
   <v>       0.47821665      -0.47821665      -0.38910183 </v>
   <v>       0.47821665      -0.04356670      -0.38910183 </v>
   <v>       0.47821574      -0.04356852       0.39518708 </v>
   <v>       0.47821574      -0.47821574       0.39518708 </v>
   <v>       0.48809482      -0.02381036      -0.43776578 </v>
   <v>       0.48809482      -0.48809482      -0.43776578 </v>
   <v>       0.48809848      -0.02380303       0.44384953 </v>
   <v>       0.48809848      -0.48809848       0.44384953 </v>
   <v>      -0.47340062       0.05319875      -0.49695097 </v>
   <v>      -0.47340062       0.47340062      -0.49695097 </v>
   <v>       0.48560990       0.11844730      -0.49692705 </v>
   <v>       0.48560990       0.36716260      -0.49692705 </v>
   <v>      -0.48548377       0.02903247      -0.43708293 </v>
   <v>      -0.48548377       0.48548377      -0.43708293 </v>
   <v>      -0.48547923       0.02904154       0.44317002 </v>
   <v>      -0.48547923       0.48547923       0.44317002 </v>
  </varray>
 </structure>
 <varray name="primitive_index" >
  <v type="int" >        1 </v>
  <v type="int" >       67 </v>
  <v type="int" >       63 </v>
  <v type="int" >        3 </v>
  <v type="int" >       50 </v>
  <v type="int" >        2 </v>
  <v type="int" >       22 </v>
  <v type="int" >       66 </v>
  <v type="int" >       68 </v>
  <v type="int" >       23 </v>
  <v type="int" >       21 </v>
  <v type="int" >       74 </v>
  <v type="int" >       76 </v>
  <v type="int" >       43 </v>
  <v type="int" >       86 </v>
  <v type="int" >       88 </v>
  <v type="int" >       42 </v>
  <v type="int" >       44 </v>
  <v type="int" >       20 </v>
  <v type="int" >       24 </v>
  <v type="int" >       19 </v>
  <v type="int" >       73 </v>
  <v type="int" >       75 </v>
  <v type="int" >       41 </v>
  <v type="int" >       45 </v>
  <v type="int" >       40 </v>
  <v type="int" >       85 </v>
  <v type="int" >       87 </v>
  <v type="int" >        6 </v>
  <v type="int" >       56 </v>
  <v type="int" >       57 </v>
  <v type="int" >       27 </v>
  <v type="int" >       72 </v>
  <v type="int" >       77 </v>
  <v type="int" >       60 </v>
  <v type="int" >       59 </v>
  <v type="int" >        5 </v>
  <v type="int" >        4 </v>
  <v type="int" >       55 </v>
  <v type="int" >       18 </v>
  <v type="int" >       12 </v>
  <v type="int" >       84 </v>
  <v type="int" >       89 </v>
  <v type="int" >        7 </v>
  <v type="int" >       13 </v>
  <v type="int" >       25 </v>
  <v type="int" >       26 </v>
  <v type="int" >       39 </v>
  <v type="int" >       33 </v>
  <v type="int" >       58 </v>
  <v type="int" >       11 </v>
  <v type="int" >       17 </v>
  <v type="int" >       71 </v>
  <v type="int" >       78 </v>
  <v type="int" >       34 </v>
  <v type="int" >       28 </v>
  <v type="int" >       14 </v>
  <v type="int" >        8 </v>
  <v type="int" >       70 </v>
  <v type="int" >       80 </v>
  <v type="int" >       83 </v>
  <v type="int" >       90 </v>
  <v type="int" >       38 </v>
  <v type="int" >       32 </v>
  <v type="int" >       16 </v>
  <v type="int" >       10 </v>
  <v type="int" >        9 </v>
  <v type="int" >       15 </v>
  <v type="int" >       35 </v>
  <v type="int" >       29 </v>
  <v type="int" >       82 </v>
  <v type="int" >       92 </v>
  <v type="int" >       37 </v>
  <v type="int" >       31 </v>
  <v type="int" >       52 </v>
  <v type="int" >       54 </v>
  <v type="int" >       69 </v>
  <v type="int" >       79 </v>
  <v type="int" >       36 </v>
  <v type="int" >       30 </v>
  <v type="int" >       93 </v>
  <v type="int" >       94 </v>
  <v type="int" >       96 </v>
  <v type="int" >       95 </v>
  <v type="int" >       48 </v>
  <v type="int" >       46 </v>
  <v type="int" >       53 </v>
  <v type="int" >       51 </v>
  <v type="int" >       49 </v>
  <v type="int" >       47 </v>
  <v type="int" >       81 </v>
  <v type="int" >       91 </v>
  <v type="int" >       62 </v>
  <v type="int" >       61 </v>
  <v type="int" >       65 </v>
  <v type="int" >       64 </v>
 </varray>
 <kpoints>
  <generation param="listgenerated">
   <i name="divisions" type="int">      20 </i>
   <v>       0.00000000       0.00000000       0.00000000 </v>
   <v>       0.50000000       0.00000000       0.00000000 </v>
   <v>       0.33333333       0.33333333       0.00000000 </v>
   <v>       0.00000000       0.00000000       0.00000000 </v>
  </generation>
  <varray name="kpointlist" >
   <v>       0.00000000       0.00000000       0.00000000 </v>
   <v>       0.02631579       0.00000000       0.00000000 </v>
   <v>       0.05263158       0.00000000       0.00000000 </v>
   <v>       0.07894737       0.00000000       0.00000000 </v>
   <v>       0.10526316       0.00000000       0.00000000 </v>
   <v>       0.13157895       0.00000000       0.00000000 </v>
   <v>       0.15789474       0.00000000       0.00000000 </v>
   <v>       0.18421053       0.00000000       0.00000000 </v>
   <v>       0.21052632       0.00000000       0.00000000 </v>
   <v>       0.23684211       0.00000000       0.00000000 </v>
   <v>       0.26315789       0.00000000       0.00000000 </v>
   <v>       0.28947368       0.00000000       0.00000000 </v>
   <v>       0.31578947       0.00000000       0.00000000 </v>
   <v>       0.34210526       0.00000000       0.00000000 </v>
   <v>       0.36842105       0.00000000       0.00000000 </v>
   <v>       0.39473684       0.00000000       0.00000000 </v>
   <v>       0.42105263       0.00000000       0.00000000 </v>
   <v>       0.44736842       0.00000000       0.00000000 </v>
   <v>       0.47368421       0.00000000       0.00000000 </v>
   <v>       0.50000000       0.00000000       0.00000000 </v>
   <v>       0.50000000       0.00000000       0.00000000 </v>
   <v>       0.49122807       0.01754386       0.00000000 </v>
   <v>       0.48245614       0.03508772       0.00000000 </v>
   <v>       0.47368421       0.05263158       0.00000000 </v>
   <v>       0.46491228       0.07017544       0.00000000 </v>
   <v>       0.45614035       0.08771930       0.00000000 </v>
   <v>       0.44736842       0.10526316       0.00000000 </v>
   <v>       0.43859649       0.12280702       0.00000000 </v>
   <v>       0.42982456       0.14035088       0.00000000 </v>
   <v>       0.42105263       0.15789474       0.00000000 </v>
   <v>       0.41228070       0.17543860       0.00000000 </v>
   <v>       0.40350877       0.19298246       0.00000000 </v>
   <v>       0.39473684       0.21052632       0.00000000 </v>
   <v>       0.38596491       0.22807018       0.00000000 </v>
   <v>       0.37719298       0.24561404       0.00000000 </v>
   <v>       0.36842105       0.26315789       0.00000000 </v>
   <v>       0.35964912       0.28070175       0.00000000 </v>
   <v>       0.35087719       0.29824561       0.00000000 </v>
   <v>       0.34210526       0.31578947       0.00000000 </v>
   <v>       0.33333333       0.33333333       0.00000000 </v>
   <v>       0.33333333       0.33333333       0.00000000 </v>
   <v>       0.31578947       0.31578947       0.00000000 </v>
   <v>       0.29824561       0.29824561       0.00000000 </v>
   <v>       0.28070175       0.28070175       0.00000000 </v>
   <v>       0.26315789       0.26315789       0.00000000 </v>
   <v>       0.24561404       0.24561404       0.00000000 </v>
   <v>       0.22807018       0.22807018       0.00000000 </v>
   <v>       0.21052632       0.21052632       0.00000000 </v>
   <v>       0.19298246       0.19298246       0.00000000 </v>
   <v>       0.17543860       0.17543860       0.00000000 </v>
   <v>       0.15789474       0.15789474       0.00000000 </v>
   <v>       0.14035088       0.14035088       0.00000000 </v>
   <v>       0.12280702       0.12280702       0.00000000 </v>
   <v>       0.10526316       0.10526316       0.00000000 </v>
   <v>       0.08771930       0.08771930       0.00000000 </v>
   <v>       0.07017544       0.07017544       0.00000000 </v>
   <v>       0.05263158       0.05263158       0.00000000 </v>
   <v>       0.03508772       0.03508772       0.00000000 </v>
   <v>       0.01754386       0.01754386       0.00000000 </v>
   <v>       0.00000000       0.00000000       0.00000000 </v>
  </varray>
  <varray name="weights" >
   <v>       0.01666667 </v>
   <v>       0.01666667 </v>
   <v>       0.01666667 </v>
   <v>       0.01666667 </v>
   <v>       0.01666667 </v>
   <v>       0.01666667 </v>
   <v>       0.01666667 </v>
   <v>       0.01666667 </v>
   <v>       0.01666667 </v>
   <v>       0.01666667 </v>
   <v>       0.01666667 </v>
   <v>       0.01666667 </v>
   <v>       0.01666667 </v>
   <v>       0.01666667 </v>
   <v>       0.01666667 </v>
   <v>       0.01666667 </v>
   <v>       0.01666667 </v>
   <v>       0.01666667 </v>
   <v>       0.01666667 </v>
   <v>       0.01666667 </v>
   <v>       0.01666667 </v>
   <v>       0.01666667 </v>
   <v>       0.01666667 </v>
   <v>       0.01666667 </v>
   <v>       0.01666667 </v>
   <v>       0.01666667 </v>
   <v>       0.01666667 </v>
   <v>       0.01666667 </v>
   <v>       0.01666667 </v>
   <v>       0.01666667 </v>
   <v>       0.01666667 </v>
   <v>       0.01666667 </v>
   <v>       0.01666667 </v>
   <v>       0.01666667 </v>
   <v>       0.01666667 </v>
   <v>       0.01666667 </v>
   <v>       0.01666667 </v>
   <v>       0.01666667 </v>
   <v>       0.01666667 </v>
   <v>       0.01666667 </v>
   <v>       0.01666667 </v>
   <v>       0.01666667 </v>
   <v>       0.01666667 </v>
   <v>       0.01666667 </v>
   <v>       0.01666667 </v>
   <v>       0.01666667 </v>
   <v>       0.01666667 </v>
   <v>       0.01666667 </v>
   <v>       0.01666667 </v>
   <v>       0.01666667 </v>
   <v>       0.01666667 </v>
   <v>       0.01666667 </v>
   <v>       0.01666667 </v>
   <v>       0.01666667 </v>
   <v>       0.01666667 </v>
   <v>       0.01666667 </v>
   <v>       0.01666667 </v>
   <v>       0.01666667 </v>
   <v>       0.01666667 </v>
   <v>       0.01666667 </v>
  </varray>
 </kpoints>
 <parameters>
  <separator name="general" >
   <i type="string" name="SYSTEM">Simulation for cell shape cell volume r</i>
   <i type="logical" name="LCOMPAT"> F  </i>
  </separator>
  <separator name="electronic" >
   <i type="string" name="PREC">high</i>
   <i name="ENMAX">    500.00000000</i>
   <i name="ENAUG">    644.87300000</i>
   <i name="EDIFF">      0.00001000</i>
   <i type="int" name="IALGO">    38</i>
   <i type="int" name="IWAVPR">    10</i>
   <i type="int" name="NBANDS">   208</i>
   <i name="NELECT">    306.00000000</i>
   <i type="int" name="TURBO">     0</i>
   <i type="int" name="IRESTART">     0</i>
   <i type="int" name="NREBOOT">     0</i>
   <i type="int" name="NMIN">     0</i>
   <i name="EREF">      0.00000000</i>
   <separator name="electronic smearing" >
    <i type="int" name="ISMEAR">     0</i>
    <i name="SIGMA">      0.01000000</i>
    <i name="KSPACING">      0.50000000</i>
    <i type="logical" name="KGAMMA"> T  </i>
   </separator>
   <separator name="electronic projectors" >
    <i type="logical" name="LREAL"> T  </i>
    <v name="ROPT">     -0.00040000     -0.00040000     -0.00040000</v>
    <i type="int" name="LMAXPAW">  -100</i>
    <i type="int" name="LMAXMIX">     2</i>
    <i type="logical" name="NLSPLINE"> F  </i>
   </separator>
   <separator name="electronic startup" >
    <i type="int" name="ISTART">     1</i>
    <i type="int" name="ICHARG">    11</i>
    <i type="int" name="INIWAV">     1</i>
   </separator>
   <separator name="electronic spin" >
    <i type="int" name="ISPIN">     1</i>
    <i type="logical" name="LNONCOLLINEAR"> F  </i>
    <v name="MAGMOM">      1.00000000      1.00000000      1.00000000      1.00000000      1.00000000      1.00000000      1.00000000      1.00000000      1.00000000      1.00000000      1.00000000      1.00000000      1.00000000      1.00000000      1.00000000      1.00000000      1.00000000      1.00000000      1.00000000      1.00000000
      1.00000000      1.00000000      1.00000000      1.00000000      1.00000000      1.00000000      1.00000000      1.00000000      1.00000000      1.00000000      1.00000000      1.00000000      1.00000000      1.00000000      1.00000000      1.00000000      1.00000000      1.00000000      1.00000000      1.00000000
      1.00000000      1.00000000      1.00000000      1.00000000      1.00000000      1.00000000      1.00000000      1.00000000      1.00000000      1.00000000      1.00000000      1.00000000      1.00000000      1.00000000      1.00000000      1.00000000      1.00000000      1.00000000      1.00000000      1.00000000
      1.00000000      1.00000000      1.00000000      1.00000000      1.00000000      1.00000000      1.00000000      1.00000000      1.00000000      1.00000000      1.00000000      1.00000000      1.00000000      1.00000000      1.00000000      1.00000000      1.00000000      1.00000000      1.00000000      1.00000000
      1.00000000      1.00000000      1.00000000      1.00000000      1.00000000      1.00000000      1.00000000      1.00000000      1.00000000      1.00000000      1.00000000      1.00000000      1.00000000      1.00000000      1.00000000      1.00000000</v>
    <i name="NUPDOWN">     -1.00000000</i>
    <i type="logical" name="LSORBIT"> F  </i>
    <v name="SAXIS">      0.00000000      0.00000000      1.00000000</v>
    <i type="logical" name="LSPIRAL"> F  </i>
    <v name="QSPIRAL">      0.00000000      0.00000000      0.00000000</v>
    <i type="logical" name="LZEROZ"> F  </i>
   </separator>
   <separator name="electronic exchange-correlation" >
    <i type="logical" name="LASPH"> F  </i>
    <i type="logical" name="LMETAGGA"> F  </i>
   </separator>
   <separator name="electronic convergence" >
    <i type="int" name="NELM">   200</i>
    <i type="int" name="NELMDL">     0</i>
    <i type="int" name="NELMIN">     2</i>
    <i name="ENINI">    500.00000000</i>
    <separator name="electronic convergence detail" >
     <i type="logical" name="LDIAG"> T  </i>
     <i type="logical" name="LSUBROT"> F  </i>
     <i name="WEIMIN">      0.00000000</i>
     <i name="EBREAK">      0.00000001</i>
     <i name="DEPER">      0.30000000</i>
     <i type="int" name="NRMM">     4</i>
     <i name="TIME">      0.40000000</i>
    </separator>
   </separator>
   <separator name="electronic mixer" >
    <i name="AMIX">      0.40000000</i>
    <i name="BMIX">      1.00000000</i>
    <i name="AMIN">      0.10000000</i>
    <i name="AMIX_MAG">      1.60000000</i>
    <i name="BMIX_MAG">      1.00000000</i>
    <separator name="electronic mixer details" >
     <i type="int" name="IMIX">     4</i>
     <i type="logical" name="MIXFIRST"> F  </i>
     <i type="int" name="MAXMIX">   -45</i>
     <i name="WC">    100.00000000</i>
     <i type="int" name="INIMIX">     1</i>
     <i type="int" name="MIXPRE">     1</i>
     <i type="int" name="MREMOVE">     5</i>
    </separator>
   </separator>
   <separator name="electronic dipolcorrection" >
    <i type="logical" name="LDIPOL"> F  </i>
    <i type="logical" name="LMONO"> F  </i>
    <i type="int" name="IDIPOL">     0</i>
    <i name="EPSILON">      1.00000000</i>
    <v name="DIPOL">   -100.00000000   -100.00000000   -100.00000000</v>
    <i name="EFIELD">      0.00000000</i>
   </separator>
  </separator>
  <separator name="grids" >
   <i type="int" name="NGX">   216</i>
   <i type="int" name="NGY">   216</i>
   <i type="int" name="NGZ">   150</i>
   <i type="int" name="NGXF">   324</i>
   <i type="int" name="NGYF">   324</i>
   <i type="int" name="NGZF">   224</i>
   <i type="logical" name="ADDGRID"> F  </i>
  </separator>
  <separator name="ionic" >
   <i type="int" name="NSW">     0</i>
   <i type="int" name="IBRION">    -1</i>
   <i type="int" name="MDALGO">     0</i>
   <i type="int" name="ISIF">     2</i>
   <i name="PSTRESS">      0.00000000</i>
   <i name="EDIFFG">     -0.01000000</i>
   <i type="int" name="NFREE">     0</i>
   <i name="POTIM">      0.30000000</i>
   <i name="SMASS">     -3.00000000</i>
   <i name="SCALEE">      1.00000000</i>
  </separator>
  <separator name="ionic md" >
   <i name="TEBEG">      0.00010000</i>
   <i name="TEEND">      0.00010000</i>
   <i type="int" name="NBLOCK">     1</i>
   <i type="int" name="KBLOCK">     1</i>
   <i type="int" name="NPACO">   256</i>
   <i name="APACO">     16.00000000</i>
  </separator>
  <separator name="symmetry" >
   <i type="int" name="ISYM">     2</i>
   <i name="SYMPREC">      0.00001000</i>
  </separator>
  <separator name="dos" >
   <i type="int" name="LORBIT">     0</i>
   <v name="RWIGS">     -1.00000000     -1.00000000     -1.00000000</v>
   <i type="int" name="NEDOS">   301</i>
   <i name="EMIN">     10.00000000</i>
   <i name="EMAX">    -10.00000000</i>
   <i name="EFERMI">      0.00000000</i>
  </separator>
  <separator name="writing" >
   <i type="int" name="NWRITE">     0</i>
   <i type="logical" name="LWAVE"> F  </i>
   <i type="logical" name="LDOWNSAMPLE"> F  </i>
   <i type="logical" name="LCHARG"> F  </i>
   <i type="logical" name="LPARD"> F  </i>
   <i type="logical" name="LVTOT"> F  </i>
   <i type="logical" name="LVHAR"> F  </i>
   <i type="logical" name="LELF"> F  </i>
   <i type="logical" name="LOPTICS"> F  </i>
   <v name="STM">      0.00000000      0.00000000      0.00000000      0.00000000      0.00000000      0.00000000      0.00000000</v>
  </separator>
  <separator name="performance" >
   <i type="int" name="NPAR">    16</i>
   <i type="int" name="NSIM">     4</i>
   <i type="int" name="NBLK">    -1</i>
   <i type="logical" name="LPLANE"> T  </i>
   <i type="logical" name="LSCALAPACK"> T  </i>
   <i type="logical" name="LSCAAWARE"> F  </i>
   <i type="logical" name="LSCALU"> F  </i>
   <i type="logical" name="LASYNC"> F  </i>
   <i type="logical" name="LORBITALREAL"> F  </i>
  </separator>
  <separator name="miscellaneous" >
   <i type="int" name="IDIOT">     3</i>
   <i type="int" name="ISPECIAL">     0</i>
   <i type="logical" name="LMUSIC"> F  </i>
   <v name="POMASS">     12.01100000     14.00100000      1.00000000</v>
   <v name="DARWINR">      0.00000000      0.00000000      0.00000000</v>
   <v name="DARWINV">      1.00000000      1.00000000      1.00000000</v>
   <i type="logical" name="LCORR"> T  </i>
  </separator>
  <i type="logical" name="GGA_COMPAT"> T  </i>
  <i type="logical" name="LBERRY"> F  </i>
  <i type="int" name="ICORELEVEL">     0</i>
  <i type="logical" name="LDAU"> F  </i>
  <i type="int" name="I_CONSTRAINED_M">     0</i>
  <separator name="electronic exchange-correlation" >
   <i type="string" name="GGA">PE</i>
   <i type="int" name="VOSKOWN">     0</i>
   <i type="logical" name="LHFCALC"> F  </i>
   <i type="string" name="PRECFOCK"></i>
   <i type="logical" name="LSYMGRAD"> F  </i>
   <i type="logical" name="LHFONE"> F  </i>
   <i type="logical" name="LRHFCALC"> F  </i>
   <i type="logical" name="LTHOMAS"> F  </i>
   <i type="logical" name="LMODELHF"> F  </i>
   <i name="ENCUT4O">     -1.00000000</i>
   <i type="int" name="EXXOEP">     0</i>
   <i type="int" name="FOURORBIT">     0</i>
   <i name="AEXX">      0.00000000</i>
   <i name="HFALPHA">      0.00000000</i>
   <i name="MCALPHA">      0.00000000</i>
   <i name="ALDAX">      1.00000000</i>
   <i name="AGGAX">      1.00000000</i>
   <i name="ALDAC">      1.00000000</i>
   <i name="AGGAC">      1.00000000</i>
   <i type="int" name="NKREDX">     1</i>
   <i type="int" name="NKREDY">     1</i>
   <i type="int" name="NKREDZ">     1</i>
   <i type="logical" name="SHIFTRED"> F  </i>
   <i type="logical" name="ODDONLY"> F  </i>
   <i type="logical" name="EVENONLY"> F  </i>
   <i type="int" name="LMAXFOCK">     0</i>
   <i type="int" name="NMAXFOCKAE">     0</i>
   <i type="logical" name="LFOCKAEDFT"> F  </i>
   <i name="HFSCREEN">      0.00000000</i>
   <i name="HFSCREENC">      0.00000000</i>
   <i type="int" name="NBANDSGWLOW">     0</i>
  </separator>
  <separator name="vdW DFT" >
   <i type="logical" name="LUSE_VDW"> F  </i>
   <i name="Zab_VDW">     -0.84910000</i>
   <i name="PARAM1">      0.12340000</i>
   <i name="PARAM2">      1.00000000</i>
   <i name="PARAM3">      0.00000000</i>
  </separator>
  <separator name="model GW" >
   <i type="int" name="MODEL_GW">     0</i>
   <i name="MODEL_EPS0">     92.68609709</i>
   <i name="MODEL_ALPHA">      1.00000000</i>
  </separator>
  <separator name="linear response parameters" >
   <i type="logical" name="LEPSILON"> F  </i>
   <i type="logical" name="LRPA"> F  </i>
   <i type="logical" name="LNABLA"> F  </i>
   <i type="logical" name="LVEL"> F  </i>
   <i type="int" name="KINTER">     0</i>
   <i name="CSHIFT">      0.10000000</i>
   <i name="OMEGAMAX">     -1.00000000</i>
   <i name="DEG_THRESHOLD">      0.00200000</i>
   <i name="RTIME">     -0.10000000</i>
   <i name="WPLASMAI">      0.00000000</i>
   <v name="DFIELD">      0.00000000      0.00000000      0.00000000</v>
   <v name="WPLASMA">      0.00000000      0.00000000      0.00000000      0.00000000      0.00000000      0.00000000      0.00000000      0.00000000      0.00000000</v>
  </separator>
  <separator name="orbital magnetization" >
   <i type="logical" name="NUCIND"> F  </i>
   <v name="MAGPOS">      0.00000000      0.00000000      0.00000000</v>
   <i type="logical" name="LNICSALL"> T  </i>
   <i type="logical" name="ORBITALMAG"> F  </i>
   <i type="logical" name="LMAGBLOCH"> F  </i>
   <i type="logical" name="LCHIMAG"> F  </i>
   <i type="logical" name="LGAUGE"> T  </i>
   <i type="int" name="MAGATOM">     0</i>
   <v name="MAGDIPOL">      0.00000000      0.00000000      0.00000000</v>
   <v name="AVECCONST">      0.00000000      0.00000000      0.00000000</v>
  </separator>
  <separator name="response functions" >
   <i type="logical" name="LADDER"> F  </i>
   <i type="logical" name="LRPAFORCE"> F  </i>
   <i type="logical" name="LFXC"> F  </i>
   <i type="logical" name="LHARTREE"> T  </i>
   <i type="int" name="IBSE">     0</i>
   <v type="int" name="KPOINT">    -1     0     0     0</v>
   <i type="logical" name="LTCTE"> F  </i>
   <i type="logical" name="LTETE"> F  </i>
   <i type="logical" name="LTRIPLET"> F  </i>
   <i type="logical" name="LFXCEPS"> F  </i>
   <i type="logical" name="LFXHEG"> F  </i>
   <i type="int" name="NATURALO">     2</i>
   <i type="logical" name="L2ORDER"> F  </i>
   <i type="logical" name="LMP2LT"> F  </i>
   <i type="logical" name="LUSEW"> F  </i>
   <i name="ENCUTGW">     -2.00000000</i>
   <i name="ENCUTGWSOFT">     -2.00000000</i>
   <i name="ENCUTLF">     -1.00000000</i>
   <i type="int" name="LMAXMP2">    -1</i>
   <i name="SCISSOR">      0.00000000</i>
   <i type="int" name="NOMEGA">     0</i>
   <i type="int" name="NOMEGAR">     0</i>
   <i type="int" name="NBANDSGW">    -1</i>
   <i type="int" name="NBANDSO">    -1</i>
   <i type="int" name="NBANDSV">    -1</i>
   <i type="int" name="NELM">   200</i>
   <i type="int" name="NELMHF">     1</i>
   <i type="int" name="DIM">     3</i>
   <i type="int" name="ANTIRES">     0</i>
   <i name="OMEGAMAX">    -30.00000000</i>
   <i name="OMEGAMIN">    -30.00000000</i>
   <i name="OMEGATL">   -200.00000000</i>
   <i type="int" name="OMEGAGRID">   140</i>
   <i name="CSHIFT">     -0.10000000</i>
   <i type="logical" name="SELFENERGY"> F  </i>
   <i type="logical" name="LSPECTRAL"> F  </i>
   <i type="logical" name="LSPECTRALGW"> F  </i>
   <i type="logical" name="LSINGLES"> F  </i>
   <i type="logical" name="LFERMIGW"> F  </i>
   <i type="logical" name="ODDONLYGW"> F  </i>
   <i type="logical" name="EVENONLYGW"> F  </i>
   <i type="int" name="NKREDLFX">     1</i>
   <i type="int" name="NKREDLFY">     1</i>
   <i type="int" name="NKREDLFZ">     1</i>
   <i type="int" name="MAXMEM">  2800</i>
   <i type="int" name="TELESCOPE">     0</i>
   <i type="int" name="TAUPAR">     1</i>
   <i type="int" name="OMEGAPAR">    -1</i>
   <i name="LAMBDA">      1.00000000</i>
  </separator>
  <separator name="External order field" >
   <i name="OFIELD_KAPPA">      0.00000000</i>
   <v name="OFIELD_K">      0.00000000      0.00000000      0.00000000</v>
   <i name="OFIELD_Q6_NEAR">      0.00000000</i>
   <i name="OFIELD_Q6_FAR">      0.00000000</i>
   <i name="OFIELD_A">      0.00000000</i>
  </separator>
  <separator name="solvation model" >
   <i type="logical" name="LSOL"> F  </i>
  </separator>
 </parameters>
 <atominfo>
  <atoms>      96 </atoms>
  <types>       3 </types>
  <array name="atoms" >
   <dimension dim="1">ion</dimension>
   <field type="string">element</field>
   <field type="int">atomtype</field>
   <set>
    <rc><c>C </c><c>   1</c></rc>
    <rc><c>C </c><c>   1</c></rc>
    <rc><c>C </c><c>   1</c></rc>
    <rc><c>C </c><c>   1</c></rc>
    <rc><c>C </c><c>   1</c></rc>
    <rc><c>C </c><c>   1</c></rc>
    <rc><c>C </c><c>   1</c></rc>
    <rc><c>C </c><c>   1</c></rc>
    <rc><c>C </c><c>   1</c></rc>
    <rc><c>C </c><c>   1</c></rc>
    <rc><c>C </c><c>   1</c></rc>
    <rc><c>C </c><c>   1</c></rc>
    <rc><c>C </c><c>   1</c></rc>
    <rc><c>C </c><c>   1</c></rc>
    <rc><c>C </c><c>   1</c></rc>
    <rc><c>C </c><c>   1</c></rc>
    <rc><c>C </c><c>   1</c></rc>
    <rc><c>C </c><c>   1</c></rc>
    <rc><c>C </c><c>   1</c></rc>
    <rc><c>C </c><c>   1</c></rc>
    <rc><c>C </c><c>   1</c></rc>
    <rc><c>C </c><c>   1</c></rc>
    <rc><c>C </c><c>   1</c></rc>
    <rc><c>C </c><c>   1</c></rc>
    <rc><c>C </c><c>   1</c></rc>
    <rc><c>C </c><c>   1</c></rc>
    <rc><c>C </c><c>   1</c></rc>
    <rc><c>C </c><c>   1</c></rc>
    <rc><c>C </c><c>   1</c></rc>
    <rc><c>C </c><c>   1</c></rc>
    <rc><c>C </c><c>   1</c></rc>
    <rc><c>C </c><c>   1</c></rc>
    <rc><c>C </c><c>   1</c></rc>
    <rc><c>C </c><c>   1</c></rc>
    <rc><c>C </c><c>   1</c></rc>
    <rc><c>C </c><c>   1</c></rc>
    <rc><c>C </c><c>   1</c></rc>
    <rc><c>C </c><c>   1</c></rc>
    <rc><c>C </c><c>   1</c></rc>
    <rc><c>C </c><c>   1</c></rc>
    <rc><c>C </c><c>   1</c></rc>
    <rc><c>C </c><c>   1</c></rc>
    <rc><c>C </c><c>   1</c></rc>
    <rc><c>C </c><c>   1</c></rc>
    <rc><c>C </c><c>   1</c></rc>
    <rc><c>C </c><c>   1</c></rc>
    <rc><c>C </c><c>   1</c></rc>
    <rc><c>C </c><c>   1</c></rc>
    <rc><c>C </c><c>   1</c></rc>
    <rc><c>C </c><c>   1</c></rc>
    <rc><c>C </c><c>   1</c></rc>
    <rc><c>C </c><c>   1</c></rc>
    <rc><c>C </c><c>   1</c></rc>
    <rc><c>C </c><c>   1</c></rc>
    <rc><c>N </c><c>   2</c></rc>
    <rc><c>N </c><c>   2</c></rc>
    <rc><c>N </c><c>   2</c></rc>
    <rc><c>N </c><c>   2</c></rc>
    <rc><c>N </c><c>   2</c></rc>
    <rc><c>N </c><c>   2</c></rc>
    <rc><c>N </c><c>   2</c></rc>
    <rc><c>N </c><c>   2</c></rc>
    <rc><c>N </c><c>   2</c></rc>
    <rc><c>N </c><c>   2</c></rc>
    <rc><c>N </c><c>   2</c></rc>
    <rc><c>N </c><c>   2</c></rc>
    <rc><c>H </c><c>   3</c></rc>
    <rc><c>H </c><c>   3</c></rc>
    <rc><c>H </c><c>   3</c></rc>
    <rc><c>H </c><c>   3</c></rc>
    <rc><c>H </c><c>   3</c></rc>
    <rc><c>H </c><c>   3</c></rc>
    <rc><c>H </c><c>   3</c></rc>
    <rc><c>H </c><c>   3</c></rc>
    <rc><c>H </c><c>   3</c></rc>
    <rc><c>H </c><c>   3</c></rc>
    <rc><c>H </c><c>   3</c></rc>
    <rc><c>H </c><c>   3</c></rc>
    <rc><c>H </c><c>   3</c></rc>
    <rc><c>H </c><c>   3</c></rc>
    <rc><c>H </c><c>   3</c></rc>
    <rc><c>H </c><c>   3</c></rc>
    <rc><c>H </c><c>   3</c></rc>
    <rc><c>H </c><c>   3</c></rc>
    <rc><c>H </c><c>   3</c></rc>
    <rc><c>H </c><c>   3</c></rc>
    <rc><c>H </c><c>   3</c></rc>
    <rc><c>H </c><c>   3</c></rc>
    <rc><c>H </c><c>   3</c></rc>
    <rc><c>H </c><c>   3</c></rc>
    <rc><c>H </c><c>   3</c></rc>
    <rc><c>H </c><c>   3</c></rc>
    <rc><c>H </c><c>   3</c></rc>
    <rc><c>H </c><c>   3</c></rc>
    <rc><c>H </c><c>   3</c></rc>
    <rc><c>H </c><c>   3</c></rc>
   </set>
  </array>
  <array name="atomtypes" >
   <dimension dim="1">type</dimension>
   <field type="int">atomspertype</field>
   <field type="string">element</field>
   <field>mass</field>
   <field>valence</field>
   <field type="string">pseudopotential</field>
   <set>
    <rc><c>  54</c><c>C </c><c>     12.01100000</c><c>      4.00000000</c><c>  PAW_PBE C 08Apr2002                   </c></rc>
    <rc><c>  12</c><c>N </c><c>     14.00100000</c><c>      5.00000000</c><c>  PAW_PBE N 08Apr2002                   </c></rc>
    <rc><c>  30</c><c>H </c><c>      1.00000000</c><c>      1.00000000</c><c>  PAW_PBE H 15Jun2001                   </c></rc>
   </set>
  </array>
 </atominfo>
 <structure name="initialpos" >
  <crystal>
   <varray name="basis" >
    <v>      29.26085251       0.00000000       0.00000000 </v>
    <v>     -14.63042626      25.34064161       0.00000000 </v>
    <v>       0.00000000       0.00000000      20.00000000 </v>
   </varray>
   <i name="volume">  14829.77553459 </i>
   <varray name="rec_basis" >
    <v>       0.03417535       0.01973115       0.00000000 </v>
    <v>       0.00000000       0.03946230       0.00000000 </v>
    <v>       0.00000000       0.00000000       0.05000000 </v>
   </varray>
  </crystal>
  <varray name="positions" >
   <v>       0.02381036       0.51190518       0.56223422 </v>
   <v>       0.02380303       0.51190152       0.44384953 </v>
   <v>       0.05343090       0.52671545       0.50303918 </v>
   <v>       0.35925382       0.71850764       0.50288572 </v>
   <v>       0.35925382       0.64074618       0.50288572 </v>
   <v>       0.28149236       0.64074618       0.50288572 </v>
   <v>       0.38844143       0.61155857       0.50296675 </v>
   <v>       0.44386262       0.63890080       0.50300452 </v>
   <v>       0.47129037       0.61140475       0.50304091 </v>
   <v>       0.44402564       0.55597436       0.50304648 </v>
   <v>       0.38859525       0.52870963       0.50304091 </v>
   <v>       0.36109920       0.55613738       0.50300452 </v>
   <v>       0.38844143       0.77688286       0.50296675 </v>
   <v>       0.44386262       0.80496182       0.50300452 </v>
   <v>       0.47129037       0.85988562       0.50304091 </v>
   <v>       0.44402564       0.88805127       0.50304648 </v>
   <v>       0.38859525       0.85988562       0.50304091 </v>
   <v>       0.36109920       0.80496182       0.50300452 </v>
   <v>       0.22311714       0.61155857       0.50296675 </v>
   <v>       0.19503818       0.63890080       0.50300452 </v>
   <v>       0.14011438       0.61140475       0.50304091 </v>
   <v>       0.11194873       0.55597436       0.50304648 </v>
   <v>       0.14011438       0.52870963       0.50304091 </v>
   <v>       0.19503818       0.55613738       0.50300452 </v>
   <v>       0.64073231       0.28146461       0.50290789 </v>
   <v>       0.64073231       0.35926769       0.50290789 </v>
   <v>       0.71853539       0.35926769       0.50290789 </v>
   <v>       0.61151809       0.38848191       0.50298929 </v>
   <v>       0.55608883       0.36114516       0.50303231 </v>
   <v>       0.52865909       0.38864610       0.50305765 </v>
   <v>       0.55606972       0.44393028       0.50305318 </v>
   <v>       0.61135390       0.47134091       0.50305765 </v>
   <v>       0.63885484       0.44391117       0.50303231 </v>
   <v>       0.61151809       0.22303618       0.50298929 </v>
   <v>       0.55608883       0.19494368       0.50303231 </v>
   <v>       0.52865909       0.14001300       0.50305765 </v>
   <v>       0.55606972       0.11213945       0.50305318 </v>
   <v>       0.61135390       0.14001300       0.50305765 </v>
   <v>       0.63885484       0.19494368       0.50303231 </v>
   <v>       0.77696382       0.38848191       0.50298929 </v>
   <v>       0.80505632       0.36114516       0.50303231 </v>
   <v>       0.85998700       0.38864610       0.50305765 </v>
   <v>       0.88786055       0.44393028       0.50305318 </v>
   <v>       0.85998700       0.47134091       0.50305765 </v>
   <v>       0.80505632       0.44391117       0.50303231 </v>
   <v>       0.48809482       0.51190518       0.56223422 </v>
   <v>       0.52659938       0.47340062       0.50304903 </v>
   <v>       0.48809482       0.97618964       0.56223422 </v>
   <v>       0.52659938       0.05319875       0.50304903 </v>
   <v>       0.94680125       0.47340062       0.50304903 </v>
   <v>       0.48809848       0.51190152       0.44384953 </v>
   <v>       0.47328455       0.52671545       0.50303918 </v>
   <v>       0.48809848       0.97619697       0.44384953 </v>
   <v>       0.47328455       0.94656910       0.50303918 </v>
   <v>       0.38755648       0.69377824       0.50285160 </v>
   <v>       0.30622176       0.61244352       0.50285160 </v>
   <v>       0.30622176       0.69377824       0.50285160 </v>
   <v>       0.61244394       0.30622197       0.50288560 </v>
   <v>       0.69377803       0.38755606       0.50288560 </v>
   <v>       0.69377803       0.30622197       0.50288560 </v>
   <v>       0.51451623       0.48548377       0.56291707 </v>
   <v>       0.51451623       0.02903247       0.56291707 </v>
   <v>       0.97096753       0.48548377       0.56291707 </v>
   <v>       0.51452077       0.48547923       0.44317002 </v>
   <v>       0.51452077       0.02904154       0.44317002 </v>
   <v>       0.97095846       0.48547923       0.44317002 </v>
   <v>       0.04356670       0.52178335       0.61089817 </v>
   <v>       0.04356852       0.52178426       0.39518708 </v>
   <v>       0.51434786       0.88143032       0.50304914 </v>
   <v>       0.46487054       0.78298441       0.50299726 </v>
   <v>       0.36708246       0.88143032       0.50304914 </v>
   <v>       0.31811387       0.78298441       0.50299726 </v>
   <v>       0.21701559       0.68188613       0.50299726 </v>
   <v>       0.11856968       0.63291754       0.50304914 </v>
   <v>       0.21701559       0.53512946       0.50299726 </v>
   <v>       0.11856968       0.48565214       0.50304914 </v>
   <v>       0.31811387       0.53512946       0.50299726 </v>
   <v>       0.36708246       0.48565214       0.50304914 </v>
   <v>       0.51434786       0.63291754       0.50304914 </v>
   <v>       0.46487054       0.68188613       0.50299726 </v>
   <v>       0.48560990       0.11844730       0.50307295 </v>
   <v>       0.53507604       0.21691496       0.50303606 </v>
   <v>       0.63283740       0.11844730       0.50307295 </v>
   <v>       0.68183893       0.21691496       0.50303606 </v>
   <v>       0.78308504       0.31816107       0.50303606 </v>
   <v>       0.88155270       0.36716260       0.50307295 </v>
   <v>       0.78308504       0.46492396       0.50303606 </v>
   <v>       0.88155270       0.51439010       0.50307295 </v>
   <v>       0.68183893       0.46492396       0.50303606 </v>
   <v>       0.63283740       0.51439010       0.50307295 </v>
   <v>       0.48560990       0.36716260       0.50307295 </v>
   <v>       0.53507604       0.31816107       0.50303606 </v>
   <v>       0.47821665       0.52178335       0.61089817 </v>
   <v>       0.47821665       0.95643330       0.61089817 </v>
   <v>       0.47821574       0.52178426       0.39518708 </v>
   <v>       0.47821574       0.95643148       0.39518708 </v>
  </varray>
 </structure>
 <calculation>
  <scstep>
   <time name="dav">  545.90  552.29</time>
   <time name="total">  546.15  552.55</time>
   <energy>
    <i name="alphaZ">     29.72673107 </i>
    <i name="ewald">  36354.62849039 </i>
    <i name="hartreedc"> -45705.47393003 </i>
    <i name="XCdc">   1064.80852575 </i>
    <i name="pawpsdc">  28786.57755454 </i>
    <i name="pawaedc"> -28840.85817355 </i>
    <i name="eentropy">     -0.00000000 </i>
    <i name="bandstr">  -3877.57150904 </i>
    <i name="atom">  11495.02586018 </i>
    <i name="e_fr_energy">   -693.13645069 </i>
    <i name="e_wo_entrp">   -693.13645069 </i>
    <i name="e_0_energy">   -693.13645069 </i>
   </energy>
  </scstep>
  <scstep>
   <time name="dav">  566.19  572.76</time>
   <time name="total">  566.19  572.76</time>
   <energy>
    <i name="e_fr_energy">   -693.51537323 </i>
    <i name="e_wo_entrp">   -693.51537323 </i>
    <i name="e_0_energy">   -693.51537323 </i>
   </energy>
  </scstep>
  <scstep>
   <time name="dav">  646.06  653.67</time>
   <time name="total">  646.06  653.67</time>
   <energy>
    <i name="e_fr_energy">   -693.52648640 </i>
    <i name="e_wo_entrp">   -693.52648640 </i>
    <i name="e_0_energy">   -693.52648640 </i>
   </energy>
  </scstep>
  <scstep>
   <time name="dav">  556.56  563.04</time>
   <time name="total">  556.56  563.05</time>
   <energy>
    <i name="e_fr_energy">   -693.52666864 </i>
    <i name="e_wo_entrp">   -693.52666864 </i>
    <i name="e_0_energy">   -693.52666864 </i>
   </energy>
  </scstep>
  <scstep>
   <time name="dav">  566.39  573.06</time>
   <time name="total">  566.39  573.06</time>
   <energy>
    <i name="alphaZ">     29.72673107 </i>
    <i name="ewald">  36354.62849039 </i>
    <i name="hartreedc"> -45705.47393003 </i>
    <i name="XCdc">   1064.80852575 </i>
    <i name="pawpsdc">  28786.57755454 </i>
    <i name="pawaedc"> -28840.85817355 </i>
    <i name="eentropy">     -0.00000000 </i>
    <i name="bandstr">  -3877.96173631 </i>
    <i name="atom">  11495.02586018 </i>
    <i name="e_fr_energy">   -693.52667795 </i>
    <i name="e_wo_entrp">   -693.52667795 </i>
    <i name="e_0_energy">   -693.52667795 </i>
   </energy>
  </scstep>
  <structure>
   <crystal>
    <varray name="basis" >
     <v>      29.26085251       0.00000000       0.00000000 </v>
     <v>     -14.63042626      25.34064161       0.00000000 </v>
     <v>       0.00000000       0.00000000      20.00000000 </v>
    </varray>
    <i name="volume">  14829.77553459 </i>
    <varray name="rec_basis" >
     <v>       0.03417535       0.01973115       0.00000000 </v>
     <v>       0.00000000       0.03946230       0.00000000 </v>
     <v>       0.00000000       0.00000000       0.05000000 </v>
    </varray>
   </crystal>
   <varray name="positions" >
    <v>       0.02381036       0.51190518       0.56223422 </v>
    <v>       0.02380303       0.51190152       0.44384953 </v>
    <v>       0.05343090       0.52671545       0.50303918 </v>
    <v>       0.35925382       0.71850764       0.50288572 </v>
    <v>       0.35925382       0.64074618       0.50288572 </v>
    <v>       0.28149236       0.64074618       0.50288572 </v>
    <v>       0.38844143       0.61155857       0.50296675 </v>
    <v>       0.44386262       0.63890080       0.50300452 </v>
    <v>       0.47129037       0.61140475       0.50304091 </v>
    <v>       0.44402564       0.55597436       0.50304648 </v>
    <v>       0.38859525       0.52870963       0.50304091 </v>
    <v>       0.36109920       0.55613738       0.50300452 </v>
    <v>       0.38844143       0.77688286       0.50296675 </v>
    <v>       0.44386262       0.80496182       0.50300452 </v>
    <v>       0.47129037       0.85988562       0.50304091 </v>
    <v>       0.44402564       0.88805127       0.50304648 </v>
    <v>       0.38859525       0.85988562       0.50304091 </v>
    <v>       0.36109920       0.80496182       0.50300452 </v>
    <v>       0.22311714       0.61155857       0.50296675 </v>
    <v>       0.19503818       0.63890080       0.50300452 </v>
    <v>       0.14011438       0.61140475       0.50304091 </v>
    <v>       0.11194873       0.55597436       0.50304648 </v>
    <v>       0.14011438       0.52870963       0.50304091 </v>
    <v>       0.19503818       0.55613738       0.50300452 </v>
    <v>       0.64073231       0.28146461       0.50290789 </v>
    <v>       0.64073231       0.35926769       0.50290789 </v>
    <v>       0.71853539       0.35926769       0.50290789 </v>
    <v>       0.61151809       0.38848191       0.50298929 </v>
    <v>       0.55608883       0.36114516       0.50303231 </v>
    <v>       0.52865909       0.38864610       0.50305765 </v>
    <v>       0.55606972       0.44393028       0.50305318 </v>
    <v>       0.61135390       0.47134091       0.50305765 </v>
    <v>       0.63885484       0.44391117       0.50303231 </v>
    <v>       0.61151809       0.22303618       0.50298929 </v>
    <v>       0.55608883       0.19494368       0.50303231 </v>
    <v>       0.52865909       0.14001300       0.50305765 </v>
    <v>       0.55606972       0.11213945       0.50305318 </v>
    <v>       0.61135390       0.14001300       0.50305765 </v>
    <v>       0.63885484       0.19494368       0.50303231 </v>
    <v>       0.77696382       0.38848191       0.50298929 </v>
    <v>       0.80505632       0.36114516       0.50303231 </v>
    <v>       0.85998700       0.38864610       0.50305765 </v>
    <v>       0.88786055       0.44393028       0.50305318 </v>
    <v>       0.85998700       0.47134091       0.50305765 </v>
    <v>       0.80505632       0.44391117       0.50303231 </v>
    <v>       0.48809482       0.51190518       0.56223422 </v>
    <v>       0.52659938       0.47340062       0.50304903 </v>
    <v>       0.48809482       0.97618964       0.56223422 </v>
    <v>       0.52659938       0.05319875       0.50304903 </v>
    <v>       0.94680125       0.47340062       0.50304903 </v>
    <v>       0.48809848       0.51190152       0.44384953 </v>
    <v>       0.47328455       0.52671545       0.50303918 </v>
    <v>       0.48809848       0.97619697       0.44384953 </v>
    <v>       0.47328455       0.94656910       0.50303918 </v>
    <v>       0.38755648       0.69377824       0.50285160 </v>
    <v>       0.30622176       0.61244352       0.50285160 </v>
    <v>       0.30622176       0.69377824       0.50285160 </v>
    <v>       0.61244394       0.30622197       0.50288560 </v>
    <v>       0.69377803       0.38755606       0.50288560 </v>
    <v>       0.69377803       0.30622197       0.50288560 </v>
    <v>       0.51451623       0.48548377       0.56291707 </v>
    <v>       0.51451623       0.02903247       0.56291707 </v>
    <v>       0.97096753       0.48548377       0.56291707 </v>
    <v>       0.51452077       0.48547923       0.44317002 </v>
    <v>       0.51452077       0.02904154       0.44317002 </v>
    <v>       0.97095846       0.48547923       0.44317002 </v>
    <v>       0.04356670       0.52178335       0.61089817 </v>
    <v>       0.04356852       0.52178426       0.39518708 </v>
    <v>       0.51434786       0.88143032       0.50304914 </v>
    <v>       0.46487054       0.78298441       0.50299726 </v>
    <v>       0.36708246       0.88143032       0.50304914 </v>
    <v>       0.31811387       0.78298441       0.50299726 </v>
    <v>       0.21701559       0.68188613       0.50299726 </v>
    <v>       0.11856968       0.63291754       0.50304914 </v>
    <v>       0.21701559       0.53512946       0.50299726 </v>
    <v>       0.11856968       0.48565214       0.50304914 </v>
    <v>       0.31811387       0.53512946       0.50299726 </v>
    <v>       0.36708246       0.48565214       0.50304914 </v>
    <v>       0.51434786       0.63291754       0.50304914 </v>
    <v>       0.46487054       0.68188613       0.50299726 </v>
    <v>       0.48560990       0.11844730       0.50307295 </v>
    <v>       0.53507604       0.21691496       0.50303606 </v>
    <v>       0.63283740       0.11844730       0.50307295 </v>
    <v>       0.68183893       0.21691496       0.50303606 </v>
    <v>       0.78308504       0.31816107       0.50303606 </v>
    <v>       0.88155270       0.36716260       0.50307295 </v>
    <v>       0.78308504       0.46492396       0.50303606 </v>
    <v>       0.88155270       0.51439010       0.50307295 </v>
    <v>       0.68183893       0.46492396       0.50303606 </v>
    <v>       0.63283740       0.51439010       0.50307295 </v>
    <v>       0.48560990       0.36716260       0.50307295 </v>
    <v>       0.53507604       0.31816107       0.50303606 </v>
    <v>       0.47821665       0.52178335       0.61089817 </v>
    <v>       0.47821665       0.95643330       0.61089817 </v>
    <v>       0.47821574       0.52178426       0.39518708 </v>
    <v>       0.47821574       0.95643148       0.39518708 </v>
   </varray>
  </structure>
  <varray name="forces" >
   <v>      -0.00785527      -0.00453524       0.00018512 </v>
   <v>      -0.00455882      -0.00263204      -0.00084791 </v>
   <v>      -0.00729412      -0.00421126       0.00277871 </v>
   <v>       0.00000000      -0.00019254      -0.00425366 </v>
   <v>      -0.00016674       0.00009627      -0.00425366 </v>
   <v>       0.00016674       0.00009627      -0.00425366 </v>
   <v>      -0.00094809       0.00054738      -0.00059155 </v>
   <v>       0.00391543      -0.00379987       0.00041858 </v>
   <v>       0.00336030       0.00127359      -0.00009849 </v>
   <v>       0.00831613      -0.00480132      -0.00170203 </v>
   <v>       0.00057719      -0.00354689      -0.00009849 </v>
   <v>       0.00524850      -0.00149092       0.00041858 </v>
   <v>       0.00000000      -0.00109476      -0.00059155 </v>
   <v>      -0.00133307       0.00529079       0.00041858 </v>
   <v>       0.00278311       0.00227331      -0.00009849 </v>
   <v>      -0.00000000       0.00960264      -0.00170203 </v>
   <v>      -0.00278311       0.00227331      -0.00009849 </v>
   <v>       0.00133307       0.00529079       0.00041858 </v>
   <v>       0.00094809       0.00054738      -0.00059155 </v>
   <v>      -0.00391543      -0.00379987       0.00041858 </v>
   <v>      -0.00336030       0.00127359      -0.00009849 </v>
   <v>      -0.00831613      -0.00480132      -0.00170203 </v>
   <v>      -0.00057719      -0.00354689      -0.00009849 </v>
   <v>      -0.00524850      -0.00149092       0.00041858 </v>
   <v>      -0.00000000       0.00061844      -0.00052784 </v>
   <v>       0.00053559      -0.00030922      -0.00052784 </v>
   <v>      -0.00053559      -0.00030922      -0.00052784 </v>
   <v>       0.00490821      -0.00283376      -0.00008105 </v>
   <v>       0.00127822       0.00201484      -0.00057186 </v>
   <v>       0.00097828      -0.00310891       0.00022464 </v>
   <v>      -0.00547253       0.00315957       0.00106339 </v>
   <v>       0.00318154       0.00070724       0.00022464 </v>
   <v>      -0.00110579      -0.00211439      -0.00057186 </v>
   <v>      -0.00000000       0.00566751      -0.00008105 </v>
   <v>       0.00238401       0.00009955      -0.00057186 </v>
   <v>      -0.00220325       0.00240167       0.00022464 </v>
   <v>       0.00000000      -0.00631913       0.00106339 </v>
   <v>       0.00220325       0.00240167       0.00022464 </v>
   <v>      -0.00238401       0.00009955      -0.00057186 </v>
   <v>      -0.00490821      -0.00283376      -0.00008105 </v>
   <v>      -0.00127822       0.00201484      -0.00057186 </v>
   <v>      -0.00097828      -0.00310891       0.00022464 </v>
   <v>       0.00547253       0.00315957       0.00106339 </v>
   <v>      -0.00318154       0.00070724       0.00022464 </v>
   <v>       0.00110579      -0.00211439      -0.00057186 </v>
   <v>       0.00785527      -0.00453524       0.00018512 </v>
   <v>       0.00344175      -0.00198710      -0.00216882 </v>
   <v>      -0.00000000       0.00907049       0.00018512 </v>
   <v>      -0.00000000       0.00397419      -0.00216882 </v>
   <v>      -0.00344175      -0.00198710      -0.00216882 </v>
   <v>       0.00455882      -0.00263204      -0.00084791 </v>
   <v>       0.00729412      -0.00421126       0.00277871 </v>
   <v>      -0.00000000       0.00526407      -0.00084791 </v>
   <v>      -0.00000000       0.00842252       0.00277871 </v>
   <v>      -0.00242742      -0.00140147       0.00138242 </v>
   <v>      -0.00000000       0.00280294       0.00138242 </v>
   <v>       0.00242742      -0.00140147       0.00138242 </v>
   <v>       0.00087180       0.00050333       0.00084470 </v>
   <v>       0.00000000      -0.00100667       0.00084470 </v>
   <v>      -0.00087180       0.00050333       0.00084470 </v>
   <v>      -0.00040064       0.00023131       0.00789841 </v>
   <v>       0.00000000      -0.00046262       0.00789841 </v>
   <v>       0.00040064       0.00023131       0.00789841 </v>
   <v>       0.00707559      -0.00408509      -0.00444357 </v>
   <v>      -0.00000000       0.00817019      -0.00444357 </v>
   <v>      -0.00707559      -0.00408509      -0.00444357 </v>
   <v>      -0.00021242      -0.00012264       0.00290832 </v>
   <v>      -0.00346880      -0.00200271      -0.00066314 </v>
   <v>       0.00076602       0.00387625       0.00006538 </v>
   <v>       0.00007930       0.00261851      -0.00020946 </v>
   <v>      -0.00076602       0.00387625       0.00006538 </v>
   <v>      -0.00007930       0.00261851      -0.00020946 </v>
   <v>      -0.00230735      -0.00124058      -0.00020946 </v>
   <v>      -0.00373994      -0.00127473       0.00006538 </v>
   <v>      -0.00222805      -0.00137793      -0.00020946 </v>
   <v>      -0.00297392      -0.00260152       0.00006538 </v>
   <v>       0.00222805      -0.00137793      -0.00020946 </v>
   <v>       0.00297392      -0.00260152       0.00006538 </v>
   <v>       0.00373994      -0.00127473       0.00006538 </v>
   <v>       0.00230735      -0.00124058      -0.00020946 </v>
   <v>      -0.00223283      -0.00129675      -0.00006088 </v>
   <v>      -0.00017087       0.00109759      -0.00065866 </v>
   <v>       0.00223283      -0.00129675      -0.00006088 </v>
   <v>       0.00017087       0.00109759      -0.00065866 </v>
   <v>      -0.00086510      -0.00069678      -0.00065866 </v>
   <v>       0.00223943      -0.00128531      -0.00006088 </v>
   <v>      -0.00103598      -0.00040081      -0.00065866 </v>
   <v>       0.00000661       0.00258206      -0.00006088 </v>
   <v>       0.00103598      -0.00040081      -0.00065866 </v>
   <v>      -0.00000661       0.00258206      -0.00006088 </v>
   <v>      -0.00223943      -0.00128531      -0.00006088 </v>
   <v>       0.00086510      -0.00069678      -0.00065866 </v>
   <v>       0.00021242      -0.00012264       0.00290832 </v>
   <v>       0.00000000       0.00024529       0.00290832 </v>
   <v>       0.00346880      -0.00200271      -0.00066314 </v>
   <v>      -0.00000000       0.00400542      -0.00066314 </v>
  </varray>
  <varray name="stress" >
   <v>       0.00382651      -0.00000000      -0.00000000 </v>
   <v>      -0.00000000       0.00382651       0.00000000 </v>
   <v>      -0.00000000      -0.00000000      -0.09654043 </v>
  </varray>
  <energy>
   <i name="e_fr_energy">   -695.28653960 </i>
   <i name="e_wo_entrp">   -695.28653960 </i>
   <i name="e_0_energy">     -0.00000000 </i>
  </energy>
  <time name="totalsc"> 3485.47 3527.92</time>
  <eigenvalues>
   <array>
    <dimension dim="1">band</dimension>
    <dimension dim="2">kpoint</dimension>
    <dimension dim="3">spin</dimension>
    <field>eigene</field>
    <field>occ</field>
    <set>
     <set comment="spin 1">
      <set comment="kpoint 1">
       <r>  -25.5276    1.0000 </r>
       <r>  -25.1090    1.0000 </r>
       <r>  -24.6526    1.0000 </r>
       <r>  -24.6525    1.0000 </r>
       <r>  -24.6524    1.0000 </r>
       <r>  -22.6125    1.0000 </r>
       <r>  -22.6123    1.0000 </r>
       <r>  -22.1908    1.0000 </r>
       <r>  -22.1905    1.0000 </r>
       <r>  -22.0805    1.0000 </r>
       <r>  -22.0804    1.0000 </r>
       <r>  -22.0804    1.0000 </r>
       <r>  -21.6819    1.0000 </r>
       <r>  -21.6149    1.0000 </r>
       <r>  -21.6145    1.0000 </r>
       <r>  -21.1757    1.0000 </r>
       <r>  -21.1081    1.0000 </r>
       <r>  -21.1079    1.0000 </r>
       <r>  -20.2294    1.0000 </r>
       <r>  -20.2293    1.0000 </r>
       <r>  -20.2154    1.0000 </r>
       <r>  -19.1897    1.0000 </r>
       <r>  -19.1896    1.0000 </r>
       <r>  -19.0184    1.0000 </r>
       <r>  -18.7006    1.0000 </r>
       <r>  -18.7003    1.0000 </r>
       <r>  -18.6824    1.0000 </r>
       <r>  -18.5048    1.0000 </r>
       <r>  -18.5046    1.0000 </r>
       <r>  -18.2625    1.0000 </r>
       <r>  -18.2311    1.0000 </r>
       <r>  -18.2307    1.0000 </r>
       <r>  -18.2144    1.0000 </r>
       <r>  -17.2132    1.0000 </r>
       <r>  -17.2132    1.0000 </r>
       <r>  -16.5361    1.0000 </r>
       <r>  -16.5126    1.0000 </r>
       <r>  -16.5125    1.0000 </r>
       <r>  -16.2796    1.0000 </r>
       <r>  -16.2794    1.0000 </r>
       <r>  -16.2794    1.0000 </r>
       <r>  -15.6433    1.0000 </r>
       <r>  -15.6431    1.0000 </r>
       <r>  -15.3943    1.0000 </r>
       <r>  -15.2366    1.0000 </r>
       <r>  -15.0755    1.0000 </r>
       <r>  -15.0751    1.0000 </r>
       <r>  -14.9855    1.0000 </r>
       <r>  -14.6926    1.0000 </r>
       <r>  -14.6924    1.0000 </r>
       <r>  -14.6511    1.0000 </r>
       <r>  -14.3546    1.0000 </r>
       <r>  -14.3544    1.0000 </r>
       <r>  -14.0237    1.0000 </r>
       <r>  -14.0234    1.0000 </r>
       <r>  -13.4699    1.0000 </r>
       <r>  -13.4634    1.0000 </r>
       <r>  -13.1085    1.0000 </r>
       <r>  -13.0657    1.0000 </r>
       <r>  -13.0562    1.0000 </r>
       <r>  -13.0562    1.0000 </r>
       <r>  -12.8599    1.0000 </r>
       <r>  -12.8598    1.0000 </r>
       <r>  -12.8597    1.0000 </r>
       <r>  -12.7557    1.0000 </r>
       <r>  -12.6866    1.0000 </r>
       <r>  -12.6865    1.0000 </r>
       <r>  -11.9808    1.0000 </r>
       <r>  -11.7038    1.0000 </r>
       <r>  -11.7036    1.0000 </r>
       <r>  -11.4865    1.0000 </r>
       <r>  -11.4864    1.0000 </r>
       <r>  -11.3886    1.0000 </r>
       <r>  -11.1693    1.0000 </r>
       <r>  -11.1692    1.0000 </r>
       <r>  -11.1534    1.0000 </r>
       <r>  -11.0292    1.0000 </r>
       <r>  -11.0291    1.0000 </r>
       <r>  -10.9709    1.0000 </r>
       <r>  -10.9630    1.0000 </r>
       <r>  -10.8429    1.0000 </r>
       <r>  -10.7213    1.0000 </r>
       <r>  -10.6760    1.0000 </r>
       <r>  -10.6759    1.0000 </r>
       <r>  -10.4257    1.0000 </r>
       <r>  -10.4254    1.0000 </r>
       <r>  -10.3480    1.0000 </r>
       <r>  -10.3217    1.0000 </r>
       <r>  -10.3037    1.0000 </r>
       <r>  -10.3035    1.0000 </r>
       <r>  -10.1286    1.0000 </r>
       <r>  -10.1284    1.0000 </r>
       <r>  -10.0825    1.0000 </r>
       <r>  -10.0763    1.0000 </r>
       <r>  -10.0761    1.0000 </r>
       <r>  -10.0680    1.0000 </r>
       <r>   -9.9725    1.0000 </r>
       <r>   -9.9722    1.0000 </r>
       <r>   -9.8724    1.0000 </r>
       <r>   -9.6918    1.0000 </r>
       <r>   -9.6916    1.0000 </r>
       <r>   -9.6296    1.0000 </r>
       <r>   -9.6295    1.0000 </r>
       <r>   -9.1941    1.0000 </r>
       <r>   -9.1937    1.0000 </r>
       <r>   -9.1743    1.0000 </r>
       <r>   -9.1399    1.0000 </r>
       <r>   -8.8127    1.0000 </r>
       <r>   -8.8127    1.0000 </r>
       <r>   -8.7804    1.0000 </r>
       <r>   -8.6908    1.0000 </r>
       <r>   -8.6801    1.0000 </r>
       <r>   -8.4732    1.0000 </r>
       <r>   -8.4730    1.0000 </r>
       <r>   -8.3673    1.0000 </r>
       <r>   -8.3671    1.0000 </r>
       <r>   -8.3617    1.0000 </r>
       <r>   -8.3614    1.0000 </r>
       <r>   -8.3077    1.0000 </r>
       <r>   -8.3076    1.0000 </r>
       <r>   -8.0531    1.0000 </r>
       <r>   -8.0528    1.0000 </r>
       <r>   -7.9450    1.0000 </r>
       <r>   -7.9091    1.0000 </r>
       <r>   -7.9089    1.0000 </r>
       <r>   -7.9089    1.0000 </r>
       <r>   -7.8687    1.0000 </r>
       <r>   -7.8686    1.0000 </r>
       <r>   -6.9728    1.0000 </r>
       <r>   -6.9628    1.0000 </r>
       <r>   -6.9627    1.0000 </r>
       <r>   -6.8833    1.0000 </r>
       <r>   -6.8832    1.0000 </r>
       <r>   -6.8613    1.0000 </r>
       <r>   -6.6146    1.0000 </r>
       <r>   -6.6145    1.0000 </r>
       <r>   -6.5846    1.0000 </r>
       <r>   -6.5658    1.0000 </r>
       <r>   -6.3977    1.0000 </r>
       <r>   -6.3977    1.0000 </r>
       <r>   -6.1638    1.0000 </r>
       <r>   -6.1635    1.0000 </r>
       <r>   -6.1366    1.0000 </r>
       <r>   -6.0892    1.0000 </r>
       <r>   -6.0890    1.0000 </r>
       <r>   -6.0768    1.0000 </r>
       <r>   -5.9285    1.0000 </r>
       <r>   -5.9284    1.0000 </r>
       <r>   -5.6794    1.0000 </r>
       <r>   -5.6788    1.0000 </r>
       <r>   -5.5304    1.0000 </r>
       <r>   -5.5293    1.0000 </r>
       <r>   -5.5293    1.0000 </r>
       <r>   -2.9188    0.0000 </r>
       <r>   -2.9188    0.0000 </r>
       <r>   -2.4919    0.0000 </r>
       <r>   -2.4918    0.0000 </r>
       <r>   -2.2767    0.0000 </r>
       <r>   -2.2677    0.0000 </r>
       <r>   -2.2676    0.0000 </r>
       <r>   -1.7956    0.0000 </r>
       <r>   -1.7849    0.0000 </r>
       <r>   -1.7848    0.0000 </r>
       <r>   -1.7820    0.0000 </r>
       <r>   -1.3403    0.0000 </r>
       <r>   -1.3401    0.0000 </r>
       <r>   -1.3389    0.0000 </r>
       <r>   -1.3297    0.0000 </r>
       <r>   -0.9315    0.0000 </r>
       <r>   -0.9312    0.0000 </r>
       <r>   -0.9226    0.0000 </r>
       <r>   -0.4772    0.0000 </r>
       <r>   -0.4170    0.0000 </r>
       <r>   -0.4168    0.0000 </r>
       <r>   -0.2507    0.0000 </r>
       <r>   -0.2506    0.0000 </r>
       <r>   -0.1263    0.0000 </r>
       <r>   -0.0236    0.0000 </r>
       <r>   -0.0234    0.0000 </r>
       <r>    0.0116    0.0000 </r>
       <r>    0.0118    0.0000 </r>
       <r>    0.1977    0.0000 </r>
       <r>    0.2162    0.0000 </r>
       <r>    0.2792    0.0000 </r>
       <r>    0.2794    0.0000 </r>
       <r>    0.3017    0.0000 </r>
       <r>    0.3191    0.0000 </r>
       <r>    0.4045    0.0000 </r>
       <r>    0.4046    0.0000 </r>
       <r>    0.4060    0.0000 </r>
       <r>    0.4060    0.0000 </r>
       <r>    0.4574    0.0000 </r>
       <r>    0.5411    0.0000 </r>
       <r>    0.5412    0.0000 </r>
       <r>    0.5737    0.0000 </r>
       <r>    0.5931    0.0000 </r>
       <r>    0.7023    0.0000 </r>
       <r>    0.7035    0.0000 </r>
       <r>    0.7262    0.0000 </r>
       <r>    0.7599    0.0000 </r>
       <r>    0.7606    0.0000 </r>
       <r>    0.8308    0.0000 </r>
       <r>    0.8315    0.0000 </r>
       <r>    0.8394    0.0000 </r>
       <r>    0.8473    0.0000 </r>
       <r>    0.8749    0.0000 </r>
       <r>    0.8932    0.0000 </r>
       <r>    0.9743    0.0000 </r>
      </set>
      <set comment="kpoint 2">
       <r>  -25.5276    1.0000 </r>
       <r>  -25.1090    1.0000 </r>
       <r>  -24.6526    1.0000 </r>
       <r>  -24.6525    1.0000 </r>
       <r>  -24.6524    1.0000 </r>
       <r>  -22.6125    1.0000 </r>
       <r>  -22.6123    1.0000 </r>
       <r>  -22.1908    1.0000 </r>
       <r>  -22.1905    1.0000 </r>
       <r>  -22.0805    1.0000 </r>
       <r>  -22.0804    1.0000 </r>
       <r>  -22.0804    1.0000 </r>
       <r>  -21.6819    1.0000 </r>
       <r>  -21.6149    1.0000 </r>
       <r>  -21.6145    1.0000 </r>
       <r>  -21.1757    1.0000 </r>
       <r>  -21.1081    1.0000 </r>
       <r>  -21.1079    1.0000 </r>
       <r>  -20.2294    1.0000 </r>
       <r>  -20.2293    1.0000 </r>
       <r>  -20.2153    1.0000 </r>
       <r>  -19.1896    1.0000 </r>
       <r>  -19.1894    1.0000 </r>
       <r>  -19.0188    1.0000 </r>
       <r>  -18.7005    1.0000 </r>
       <r>  -18.7002    1.0000 </r>
       <r>  -18.6824    1.0000 </r>
       <r>  -18.5048    1.0000 </r>
       <r>  -18.5043    1.0000 </r>
       <r>  -18.2625    1.0000 </r>
       <r>  -18.2316    1.0000 </r>
       <r>  -18.2308    1.0000 </r>
       <r>  -18.2142    1.0000 </r>
       <r>  -17.2132    1.0000 </r>
       <r>  -17.2126    1.0000 </r>
       <r>  -16.5516    1.0000 </r>
       <r>  -16.5125    1.0000 </r>
       <r>  -16.4969    1.0000 </r>
       <r>  -16.2796    1.0000 </r>
       <r>  -16.2794    1.0000 </r>
       <r>  -16.2794    1.0000 </r>
       <r>  -15.6446    1.0000 </r>
       <r>  -15.6432    1.0000 </r>
       <r>  -15.3943    1.0000 </r>
       <r>  -15.2354    1.0000 </r>
       <r>  -15.0754    1.0000 </r>
       <r>  -15.0750    1.0000 </r>
       <r>  -14.9855    1.0000 </r>
       <r>  -14.6928    1.0000 </r>
       <r>  -14.6924    1.0000 </r>
       <r>  -14.6515    1.0000 </r>
       <r>  -14.3545    1.0000 </r>
       <r>  -14.3543    1.0000 </r>
       <r>  -14.0237    1.0000 </r>
       <r>  -14.0234    1.0000 </r>
       <r>  -13.4699    1.0000 </r>
       <r>  -13.4634    1.0000 </r>
       <r>  -13.1086    1.0000 </r>
       <r>  -13.0657    1.0000 </r>
       <r>  -13.0562    1.0000 </r>
       <r>  -13.0558    1.0000 </r>
       <r>  -12.8599    1.0000 </r>
       <r>  -12.8598    1.0000 </r>
       <r>  -12.8597    1.0000 </r>
       <r>  -12.7585    1.0000 </r>
       <r>  -12.6865    1.0000 </r>
       <r>  -12.6835    1.0000 </r>
       <r>  -11.9822    1.0000 </r>
       <r>  -11.7038    1.0000 </r>
       <r>  -11.7025    1.0000 </r>
       <r>  -11.4863    1.0000 </r>
       <r>  -11.4862    1.0000 </r>
       <r>  -11.3886    1.0000 </r>
       <r>  -11.1697    1.0000 </r>
       <r>  -11.1697    1.0000 </r>
       <r>  -11.1534    1.0000 </r>
       <r>  -11.0292    1.0000 </r>
       <r>  -11.0287    1.0000 </r>
       <r>  -10.9709    1.0000 </r>
       <r>  -10.9627    1.0000 </r>
       <r>  -10.8430    1.0000 </r>
       <r>  -10.7221    1.0000 </r>
       <r>  -10.6760    1.0000 </r>
       <r>  -10.6751    1.0000 </r>
       <r>  -10.4259    1.0000 </r>
       <r>  -10.4256    1.0000 </r>
       <r>  -10.3488    1.0000 </r>
       <r>  -10.3217    1.0000 </r>
       <r>  -10.3034    1.0000 </r>
       <r>  -10.3025    1.0000 </r>
       <r>  -10.1286    1.0000 </r>
       <r>  -10.1284    1.0000 </r>
       <r>  -10.0826    1.0000 </r>
       <r>  -10.0763    1.0000 </r>
       <r>  -10.0761    1.0000 </r>
       <r>  -10.0680    1.0000 </r>
       <r>   -9.9725    1.0000 </r>
       <r>   -9.9722    1.0000 </r>
       <r>   -9.8724    1.0000 </r>
       <r>   -9.6918    1.0000 </r>
       <r>   -9.6916    1.0000 </r>
       <r>   -9.6296    1.0000 </r>
       <r>   -9.6295    1.0000 </r>
       <r>   -9.1941    1.0000 </r>
       <r>   -9.1937    1.0000 </r>
       <r>   -9.1743    1.0000 </r>
       <r>   -9.1399    1.0000 </r>
       <r>   -8.8128    1.0000 </r>
       <r>   -8.8127    1.0000 </r>
       <r>   -8.7804    1.0000 </r>
       <r>   -8.6908    1.0000 </r>
       <r>   -8.6800    1.0000 </r>
       <r>   -8.4733    1.0000 </r>
       <r>   -8.4730    1.0000 </r>
       <r>   -8.3673    1.0000 </r>
       <r>   -8.3673    1.0000 </r>
       <r>   -8.3615    1.0000 </r>
       <r>   -8.3613    1.0000 </r>
       <r>   -8.3077    1.0000 </r>
       <r>   -8.3076    1.0000 </r>
       <r>   -8.0531    1.0000 </r>
       <r>   -8.0528    1.0000 </r>
       <r>   -7.9450    1.0000 </r>
       <r>   -7.9091    1.0000 </r>
       <r>   -7.9089    1.0000 </r>
       <r>   -7.9089    1.0000 </r>
       <r>   -7.8687    1.0000 </r>
       <r>   -7.8686    1.0000 </r>
       <r>   -6.9727    1.0000 </r>
       <r>   -6.9628    1.0000 </r>
       <r>   -6.9627    1.0000 </r>
       <r>   -6.8833    1.0000 </r>
       <r>   -6.8832    1.0000 </r>
       <r>   -6.8614    1.0000 </r>
       <r>   -6.6146    1.0000 </r>
       <r>   -6.6145    1.0000 </r>
       <r>   -6.5846    1.0000 </r>
       <r>   -6.5658    1.0000 </r>
       <r>   -6.3977    1.0000 </r>
       <r>   -6.3977    1.0000 </r>
       <r>   -6.1638    1.0000 </r>
       <r>   -6.1635    1.0000 </r>
       <r>   -6.1366    1.0000 </r>
       <r>   -6.0892    1.0000 </r>
       <r>   -6.0890    1.0000 </r>
       <r>   -6.0768    1.0000 </r>
       <r>   -5.9285    1.0000 </r>
       <r>   -5.9284    1.0000 </r>
       <r>   -5.6794    1.0000 </r>
       <r>   -5.6788    1.0000 </r>
       <r>   -5.5305    1.0000 </r>
       <r>   -5.5293    1.0000 </r>
       <r>   -5.5292    1.0000 </r>
       <r>   -2.9188    0.0000 </r>
       <r>   -2.9188    0.0000 </r>
       <r>   -2.4919    0.0000 </r>
       <r>   -2.4918    0.0000 </r>
       <r>   -2.2767    0.0000 </r>
       <r>   -2.2677    0.0000 </r>
       <r>   -2.2676    0.0000 </r>
       <r>   -1.7956    0.0000 </r>
       <r>   -1.7849    0.0000 </r>
       <r>   -1.7848    0.0000 </r>
       <r>   -1.7820    0.0000 </r>
       <r>   -1.3406    0.0000 </r>
       <r>   -1.3403    0.0000 </r>
       <r>   -1.3385    0.0000 </r>
       <r>   -1.3297    0.0000 </r>
       <r>   -0.9315    0.0000 </r>
       <r>   -0.9312    0.0000 </r>
       <r>   -0.9226    0.0000 </r>
       <r>   -0.4772    0.0000 </r>
       <r>   -0.4170    0.0000 </r>
       <r>   -0.4168    0.0000 </r>
       <r>   -0.2508    0.0000 </r>
       <r>   -0.2507    0.0000 </r>
       <r>   -0.1260    0.0000 </r>
       <r>   -0.0234    0.0000 </r>
       <r>   -0.0232    0.0000 </r>
       <r>    0.0116    0.0000 </r>
       <r>    0.0117    0.0000 </r>
       <r>    0.1978    0.0000 </r>
       <r>    0.2159    0.0000 </r>
       <r>    0.2758    0.0000 </r>
       <r>    0.2783    0.0000 </r>
       <r>    0.3047    0.0000 </r>
       <r>    0.3189    0.0000 </r>
       <r>    0.4052    0.0000 </r>
       <r>    0.4053    0.0000 </r>
       <r>    0.4059    0.0000 </r>
       <r>    0.4060    0.0000 </r>
       <r>    0.4579    0.0000 </r>
       <r>    0.5406    0.0000 </r>
       <r>    0.5413    0.0000 </r>
       <r>    0.5749    0.0000 </r>
       <r>    0.5935    0.0000 </r>
       <r>    0.7015    0.0000 </r>
       <r>    0.7027    0.0000 </r>
       <r>    0.7273    0.0000 </r>
       <r>    0.7598    0.0000 </r>
       <r>    0.7605    0.0000 </r>
       <r>    0.8276    0.0000 </r>
       <r>    0.8317    0.0000 </r>
       <r>    0.8426    0.0000 </r>
       <r>    0.8481    0.0000 </r>
       <r>    0.8742    0.0000 </r>
       <r>    0.8938    0.0000 </r>
       <r>    0.9737    0.0000 </r>
      </set>
      <set comment="kpoint 3">
       <r>  -25.5276    1.0000 </r>
       <r>  -25.1090    1.0000 </r>
       <r>  -24.6526    1.0000 </r>
       <r>  -24.6525    1.0000 </r>
       <r>  -24.6524    1.0000 </r>
       <r>  -22.6125    1.0000 </r>
       <r>  -22.6123    1.0000 </r>
       <r>  -22.1908    1.0000 </r>
       <r>  -22.1905    1.0000 </r>
       <r>  -22.0805    1.0000 </r>
       <r>  -22.0804    1.0000 </r>
       <r>  -22.0804    1.0000 </r>
       <r>  -21.6819    1.0000 </r>
       <r>  -21.6150    1.0000 </r>
       <r>  -21.6145    1.0000 </r>
       <r>  -21.1757    1.0000 </r>
       <r>  -21.1081    1.0000 </r>
       <r>  -21.1080    1.0000 </r>
       <r>  -20.2294    1.0000 </r>
       <r>  -20.2293    1.0000 </r>
       <r>  -20.2153    1.0000 </r>
       <r>  -19.1896    1.0000 </r>
       <r>  -19.1889    1.0000 </r>
       <r>  -19.0200    1.0000 </r>
       <r>  -18.7005    1.0000 </r>
       <r>  -18.6997    1.0000 </r>
       <r>  -18.6824    1.0000 </r>
       <r>  -18.5048    1.0000 </r>
       <r>  -18.5032    1.0000 </r>
       <r>  -18.2625    1.0000 </r>
       <r>  -18.2333    1.0000 </r>
       <r>  -18.2308    1.0000 </r>
       <r>  -18.2139    1.0000 </r>
       <r>  -17.2132    1.0000 </r>
       <r>  -17.2107    1.0000 </r>
       <r>  -16.5748    1.0000 </r>
       <r>  -16.5125    1.0000 </r>
       <r>  -16.4733    1.0000 </r>
       <r>  -16.2796    1.0000 </r>
       <r>  -16.2794    1.0000 </r>
       <r>  -16.2794    1.0000 </r>
       <r>  -15.6490    1.0000 </r>
       <r>  -15.6432    1.0000 </r>
       <r>  -15.3943    1.0000 </r>
       <r>  -15.2319    1.0000 </r>
       <r>  -15.0754    1.0000 </r>
       <r>  -15.0749    1.0000 </r>
       <r>  -14.9855    1.0000 </r>
       <r>  -14.6933    1.0000 </r>
       <r>  -14.6924    1.0000 </r>
       <r>  -14.6526    1.0000 </r>
       <r>  -14.3545    1.0000 </r>
       <r>  -14.3538    1.0000 </r>
       <r>  -14.0237    1.0000 </r>
       <r>  -14.0235    1.0000 </r>
       <r>  -13.4699    1.0000 </r>
       <r>  -13.4634    1.0000 </r>
       <r>  -13.1090    1.0000 </r>
       <r>  -13.0657    1.0000 </r>
       <r>  -13.0562    1.0000 </r>
       <r>  -13.0549    1.0000 </r>
       <r>  -12.8599    1.0000 </r>
       <r>  -12.8598    1.0000 </r>
       <r>  -12.8597    1.0000 </r>
       <r>  -12.7656    1.0000 </r>
       <r>  -12.6865    1.0000 </r>
       <r>  -12.6757    1.0000 </r>
       <r>  -11.9862    1.0000 </r>
       <r>  -11.7042    1.0000 </r>
       <r>  -11.6992    1.0000 </r>
       <r>  -11.4860    1.0000 </r>
       <r>  -11.4853    1.0000 </r>
       <r>  -11.3886    1.0000 </r>
       <r>  -11.1711    1.0000 </r>
       <r>  -11.1708    1.0000 </r>
       <r>  -11.1533    1.0000 </r>
       <r>  -11.0293    1.0000 </r>
       <r>  -11.0277    1.0000 </r>
       <r>  -10.9709    1.0000 </r>
       <r>  -10.9619    1.0000 </r>
       <r>  -10.8435    1.0000 </r>
       <r>  -10.7245    1.0000 </r>
       <r>  -10.6758    1.0000 </r>
       <r>  -10.6730    1.0000 </r>
       <r>  -10.4270    1.0000 </r>
       <r>  -10.4256    1.0000 </r>
       <r>  -10.3508    1.0000 </r>
       <r>  -10.3219    1.0000 </r>
       <r>  -10.3029    1.0000 </r>
       <r>  -10.2992    1.0000 </r>
       <r>  -10.1287    1.0000 </r>
       <r>  -10.1285    1.0000 </r>
       <r>  -10.0826    1.0000 </r>
       <r>  -10.0763    1.0000 </r>
       <r>  -10.0760    1.0000 </r>
       <r>  -10.0680    1.0000 </r>
       <r>   -9.9727    1.0000 </r>
       <r>   -9.9723    1.0000 </r>
       <r>   -9.8724    1.0000 </r>
       <r>   -9.6918    1.0000 </r>
       <r>   -9.6916    1.0000 </r>
       <r>   -9.6296    1.0000 </r>
       <r>   -9.6295    1.0000 </r>
       <r>   -9.1941    1.0000 </r>
       <r>   -9.1937    1.0000 </r>
       <r>   -9.1743    1.0000 </r>
       <r>   -9.1399    1.0000 </r>
       <r>   -8.8130    1.0000 </r>
       <r>   -8.8127    1.0000 </r>
       <r>   -8.7804    1.0000 </r>
       <r>   -8.6908    1.0000 </r>
       <r>   -8.6797    1.0000 </r>
       <r>   -8.4733    1.0000 </r>
       <r>   -8.4730    1.0000 </r>
       <r>   -8.3679    1.0000 </r>
       <r>   -8.3673    1.0000 </r>
       <r>   -8.3615    1.0000 </r>
       <r>   -8.3607    1.0000 </r>
       <r>   -8.3077    1.0000 </r>
       <r>   -8.3076    1.0000 </r>
       <r>   -8.0531    1.0000 </r>
       <r>   -8.0527    1.0000 </r>
       <r>   -7.9450    1.0000 </r>
       <r>   -7.9091    1.0000 </r>
       <r>   -7.9089    1.0000 </r>
       <r>   -7.9089    1.0000 </r>
       <r>   -7.8687    1.0000 </r>
       <r>   -7.8686    1.0000 </r>
       <r>   -6.9727    1.0000 </r>
       <r>   -6.9629    1.0000 </r>
       <r>   -6.9627    1.0000 </r>
       <r>   -6.8833    1.0000 </r>
       <r>   -6.8831    1.0000 </r>
       <r>   -6.8615    1.0000 </r>
       <r>   -6.6146    1.0000 </r>
       <r>   -6.6145    1.0000 </r>
       <r>   -6.5846    1.0000 </r>
       <r>   -6.5658    1.0000 </r>
       <r>   -6.3977    1.0000 </r>
       <r>   -6.3977    1.0000 </r>
       <r>   -6.1638    1.0000 </r>
       <r>   -6.1635    1.0000 </r>
       <r>   -6.1366    1.0000 </r>
       <r>   -6.0892    1.0000 </r>
       <r>   -6.0890    1.0000 </r>
       <r>   -6.0768    1.0000 </r>
       <r>   -5.9285    1.0000 </r>
       <r>   -5.9284    1.0000 </r>
       <r>   -5.6794    1.0000 </r>
       <r>   -5.6788    1.0000 </r>
       <r>   -5.5307    1.0000 </r>
       <r>   -5.5293    1.0000 </r>
       <r>   -5.5290    1.0000 </r>
       <r>   -2.9188    0.0000 </r>
       <r>   -2.9188    0.0000 </r>
       <r>   -2.4919    0.0000 </r>
       <r>   -2.4918    0.0000 </r>
       <r>   -2.2767    0.0000 </r>
       <r>   -2.2678    0.0000 </r>
       <r>   -2.2677    0.0000 </r>
       <r>   -1.7954    0.0000 </r>
       <r>   -1.7849    0.0000 </r>
       <r>   -1.7848    0.0000 </r>
       <r>   -1.7820    0.0000 </r>
       <r>   -1.3415    0.0000 </r>
       <r>   -1.3403    0.0000 </r>
       <r>   -1.3378    0.0000 </r>
       <r>   -1.3297    0.0000 </r>
       <r>   -0.9315    0.0000 </r>
       <r>   -0.9313    0.0000 </r>
       <r>   -0.9226    0.0000 </r>
       <r>   -0.4771    0.0000 </r>
       <r>   -0.4169    0.0000 </r>
       <r>   -0.4167    0.0000 </r>
       <r>   -0.2515    0.0000 </r>
       <r>   -0.2507    0.0000 </r>
       <r>   -0.1250    0.0000 </r>
       <r>   -0.0228    0.0000 </r>
       <r>   -0.0227    0.0000 </r>
       <r>    0.0115    0.0000 </r>
       <r>    0.0117    0.0000 </r>
       <r>    0.1982    0.0000 </r>
       <r>    0.2150    0.0000 </r>
       <r>    0.2681    0.0000 </r>
       <r>    0.2758    0.0000 </r>
       <r>    0.3106    0.0000 </r>
       <r>    0.3184    0.0000 </r>
       <r>    0.4048    0.0000 </r>
       <r>    0.4058    0.0000 </r>
       <r>    0.4075    0.0000 </r>
[...]
       <r>   -23.8403     0.0000    10.0000 </r>
       <r>   -23.7432     0.0000    10.0000 </r>
       <r>   -23.6460     0.0000    10.0000 </r>
       <r>   -23.5488     0.0000    10.0000 </r>
       <r>   -23.4516     0.0000    10.0000 </r>
       <r>   -23.3545     0.0000    10.0000 </r>
       <r>   -23.2573     0.0000    10.0000 </r>
       <r>   -23.1601     0.0000    10.0000 </r>
       <r>   -23.0629     0.0000    10.0000 </r>
       <r>   -22.9658     0.0000    10.0000 </r>
       <r>   -22.8686     0.0000    10.0000 </r>
       <r>   -22.7714     0.0000    10.0000 </r>
       <r>   -22.6742     0.0000    10.0000 </r>
       <r>   -22.5771    41.1634    14.0000 </r>
       <r>   -22.4799     0.0000    14.0000 </r>
       <r>   -22.3827     0.0000    14.0000 </r>
       <r>   -22.2855     0.0000    14.0000 </r>
       <r>   -22.1884    25.7743    16.5046 </r>
       <r>   -22.0912     3.9556    18.3844 </r>
       <r>   -21.9940     0.0000    24.0000 </r>
       <r>   -21.8969     0.0000    24.0000 </r>
       <r>   -21.7997     0.0000    24.0000 </r>
       <r>   -21.7025     0.0244    24.0024 </r>
       <r>   -21.6053    58.4277    29.6800 </r>
       <r>   -21.5082     0.0000    30.0000 </r>
       <r>   -21.4110     0.0000    30.0000 </r>
       <r>   -21.3138     0.0000    30.0000 </r>
       <r>   -21.2166     0.0000    30.0000 </r>
       <r>   -21.1195    23.4464    32.2784 </r>
       <r>   -21.0223     0.0000    36.0000 </r>
       <r>   -20.9251     0.0000    36.0000 </r>
       <r>   -20.8279     0.0000    36.0000 </r>
       <r>   -20.7308     0.0000    36.0000 </r>
       <r>   -20.6336     0.0000    36.0000 </r>
       <r>   -20.5364     0.0000    36.0000 </r>
       <r>   -20.4392     0.0000    36.0000 </r>
       <r>   -20.3421     0.0000    36.0000 </r>
       <r>   -20.2449     0.7207    36.0700 </r>
       <r>   -20.1477    20.5815    42.0000 </r>
       <r>   -20.0505     0.0000    42.0000 </r>
       <r>   -19.9534     0.0000    42.0000 </r>
       <r>   -19.8562     0.0000    42.0000 </r>
       <r>   -19.7590     0.0000    42.0000 </r>
       <r>   -19.6619     0.0000    42.0000 </r>
       <r>   -19.5647     0.0000    42.0000 </r>
       <r>   -19.4675     0.0000    42.0000 </r>
       <r>   -19.3703     0.0000    42.0000 </r>
       <r>   -19.2732     0.0000    42.0000 </r>
       <r>   -19.1760    25.7916    44.5063 </r>
       <r>   -19.0788    21.0199    46.9429 </r>
       <r>   -18.9816     8.2299    48.0000 </r>
       <r>   -18.8845     0.0000    48.0000 </r>
       <r>   -18.7873     0.0000    48.0000 </r>
       <r>   -18.6901    28.3955    50.7593 </r>
       <r>   -18.5929     0.0000    54.0000 </r>
       <r>   -18.4958    21.7608    56.1146 </r>
       <r>   -18.3986    12.1564    57.7482 </r>
       <r>   -18.3014    11.7276    59.1396 </r>
       <r>   -18.2042    65.9318    65.6737 </r>
       <r>   -18.1071     0.0000    66.0000 </r>
       <r>   -18.0099     0.0000    66.0000 </r>
       <r>   -17.9127     0.0000    66.0000 </r>
       <r>   -17.8156     0.0000    66.0000 </r>
       <r>   -17.7184     0.0000    66.0000 </r>
       <r>   -17.6212     0.0000    66.0000 </r>
       <r>   -17.5240     0.0000    66.0000 </r>
       <r>   -17.4269     0.0000    66.0000 </r>
       <r>   -17.3297     0.0000    66.0000 </r>
       <r>   -17.2325     0.0700    66.0068 </r>
       <r>   -17.1353    28.3842    68.7650 </r>
       <r>   -17.0382     9.8464    69.8235 </r>
       <r>   -16.9410     0.6790    70.0660 </r>
       <r>   -16.8438     7.9837    71.0759 </r>
       <r>   -16.7466     2.5328    71.3795 </r>
       <r>   -16.6495     2.1775    71.6449 </r>
       <r>   -16.5523     2.1041    71.9045 </r>
       <r>   -16.4551    22.6831    74.2042 </r>
       <r>   -16.3579     2.1777    74.4452 </r>
       <r>   -16.2608    63.6027    80.6805 </r>
       <r>   -16.1636     2.7657    81.0022 </r>
       <r>   -16.0664     9.5838    81.9982 </r>
       <r>   -15.9693     0.0000    82.0000 </r>
       <r>   -15.8721     8.9143    82.8662 </r>
       <r>   -15.7749     2.9387    83.2856 </r>
       <r>   -15.6777     3.3161    83.6558 </r>
       <r>   -15.5806    23.3232    86.0000 </r>
       <r>   -15.4834     0.0000    86.0000 </r>
       <r>   -15.3862    18.0022    87.7493 </r>
       <r>   -15.2890     0.0000    88.0000 </r>
       <r>   -15.1919     4.6759    88.4544 </r>
       <r>   -15.0947    14.4985    89.9755 </r>
       <r>   -14.9975    42.0020    94.0873 </r>
       <r>   -14.9003     0.0000    96.0000 </r>
       <r>   -14.8032     0.0001    96.0000 </r>
       <r>   -14.7060    16.4250    97.5961 </r>
       <r>   -14.6088    20.5816   102.0000 </r>
       <r>   -14.5116     0.0000   102.0000 </r>
       <r>   -14.4145     0.0000   102.0000 </r>
       <r>   -14.3173    40.8693   105.9714 </r>
       <r>   -14.2201     0.0000   106.0000 </r>
       <r>   -14.1230     0.0000   106.0000 </r>
       <r>   -14.0258    16.5617   107.6094 </r>
       <r>   -13.9286     0.0000   110.0000 </r>
       <r>   -13.8314     0.0000   110.0000 </r>
       <r>   -13.7343     0.0000   110.0000 </r>
       <r>   -13.6371     0.0000   110.0000 </r>
       <r>   -13.5399     0.0000   110.0000 </r>
       <r>   -13.4427    41.1247   113.9962 </r>
       <r>   -13.3456     0.0000   114.0000 </r>
       <r>   -13.2484     0.0000   114.0000 </r>
       <r>   -13.1512     0.0002   114.0000 </r>
       <r>   -13.0540    54.8864   119.3335 </r>
       <r>   -12.9569    14.7491   122.0000 </r>
       <r>   -12.8597    44.6346   126.3374 </r>
       <r>   -12.7625     4.5868   129.8790 </r>
       <r>   -12.6653    22.7607   132.2117 </r>
       <r>   -12.5682     3.6762   132.6573 </r>
       <r>   -12.4710    11.1664   133.8185 </r>
       <r>   -12.3738     0.0000   134.0000 </r>
       <r>   -12.2767     0.0000   134.0000 </r>
       <r>   -12.1795     1.1427   134.1110 </r>
       <r>   -12.0823     8.3950   135.3164 </r>
       <r>   -11.9851     4.8891   135.8752 </r>
       <r>   -11.8880     0.0000   136.0000 </r>
       <r>   -11.7908     0.0000   136.0000 </r>
       <r>   -11.6936    22.4517   138.1817 </r>
       <r>   -11.5964     6.5546   139.0037 </r>
       <r>   -11.4993     6.6503   140.0467 </r>
       <r>   -11.4021    29.6869   144.0533 </r>
       <r>   -11.3049     0.0000   146.0000 </r>
       <r>   -11.2077    24.5584   148.3864 </r>
       <r>   -11.1106    31.5530   152.0000 </r>
       <r>   -11.0134    23.0876   154.2435 </r>
       <r>   -10.9162    47.4877   159.4497 </r>
       <r>   -10.8190    20.6147   162.0032 </r>
       <r>   -10.7219    17.4447   163.8964 </r>
       <r>   -10.6247    31.1948   167.0313 </r>
       <r>   -10.5275     0.0000   168.0000 </r>
       <r>   -10.4304    23.8855   170.3210 </r>
       <r>   -10.3332    23.4839   174.2820 </r>
       <r>   -10.2360    29.0097   178.8190 </r>
       <r>   -10.1388    17.5181   180.9698 </r>
       <r>   -10.0417    82.3258   191.9999 </r>
       <r>    -9.9445    41.1630   196.0000 </r>
       <r>    -9.8473    20.5790   197.9997 </r>
       <r>    -9.7501     0.0000   198.0000 </r>
       <r>    -9.6530    41.1822   202.0018 </r>
       <r>    -9.5558    41.1446   206.0000 </r>
       <r>    -9.4586     0.0000   206.0000 </r>
       <r>    -9.3614     0.0000   206.0000 </r>
       <r>    -9.2643     0.0000   206.0000 </r>
       <r>    -9.1671    58.4999   211.6847 </r>
       <r>    -9.0699    20.5805   214.0000 </r>
       <r>    -8.9727     0.0000   214.0000 </r>
       <r>    -8.8756     0.0000   214.0000 </r>
       <r>    -8.7784    53.7471   219.2228 </r>
       <r>    -8.6812    21.1309   222.0534 </r>
       <r>    -8.5841     0.0000   224.0000 </r>
       <r>    -8.4869     1.7576   224.1708 </r>
       <r>    -8.3897     1.1368   228.1105 </r>
       <r>    -8.2925   107.3381   239.9334 </r>
       <r>    -8.1954     0.0000   240.0000 </r>
       <r>    -8.0982     0.0000   240.0000 </r>
       <r>    -8.0010    41.1634   244.0000 </r>
       <r>    -7.9038    67.8683   250.5950 </r>
       <r>    -7.8067    41.1634   256.0000 </r>
       <r>    -7.7095     0.0000   256.0000 </r>
       <r>    -7.6123     0.0000   256.0000 </r>
       <r>    -7.5151     0.0000   256.0000 </r>
       <r>    -7.4180     0.0000   256.0000 </r>
       <r>    -7.3208     0.0000   256.0000 </r>
       <r>    -7.2236     0.0000   256.0000 </r>
       <r>    -7.1264     0.0000   256.0000 </r>
       <r>    -7.0293     0.0000   256.0000 </r>
       <r>    -6.9321    61.7449   262.0000 </r>
       <r>    -6.8349    61.7447   268.0000 </r>
       <r>    -6.7378     0.0000   268.0000 </r>
       <r>    -6.6406     0.0048   268.0005 </r>
       <r>    -6.5434    82.3054   275.9984 </r>
       <r>    -6.4462     0.0000   276.0000 </r>
       <r>    -6.3491    41.1634   280.0000 </r>
       <r>    -6.2519     0.0000   280.0000 </r>
       <r>    -6.1547    37.0247   283.5978 </r>
       <r>    -6.0575    82.1308   291.9915 </r>
       <r>    -5.9604     0.0002   292.0000 </r>
       <r>    -5.8632    41.1632   296.0000 </r>
       <r>    -5.7660     0.0000   296.0000 </r>
       <r>    -5.6688    38.1552   299.7077 </r>
       <r>    -5.5717     0.0000   300.0000 </r>
       <r>    -5.4745    61.7451   306.0000 </r>
       <r>    -5.3773     0.0000   306.0000 </r>
       <r>    -5.2801     0.0000   306.0000 </r>
       <r>    -5.1830     0.0000   306.0000 </r>
       <r>    -5.0858     0.0000   306.0000 </r>
       <r>    -4.9886     0.0000   306.0000 </r>
       <r>    -4.8914     0.0000   306.0000 </r>
       <r>    -4.7943     0.0000   306.0000 </r>
       <r>    -4.6971     0.0000   306.0000 </r>
       <r>    -4.5999     0.0000   306.0000 </r>
       <r>    -4.5028     0.0000   306.0000 </r>
       <r>    -4.4056     0.0000   306.0000 </r>
       <r>    -4.3084     0.0000   306.0000 </r>
       <r>    -4.2112     0.0000   306.0000 </r>
       <r>    -4.1141     0.0000   306.0000 </r>
       <r>    -4.0169     0.0000   306.0000 </r>
       <r>    -3.9197     0.0000   306.0000 </r>
       <r>    -3.8225     0.0000   306.0000 </r>
       <r>    -3.7254     0.0000   306.0000 </r>
       <r>    -3.6282     0.0000   306.0000 </r>
       <r>    -3.5310     0.0000   306.0000 </r>
       <r>    -3.4338     0.0000   306.0000 </r>
       <r>    -3.3367     0.0000   306.0000 </r>
       <r>    -3.2395     0.0000   306.0000 </r>
       <r>    -3.1423     0.0000   306.0000 </r>
       <r>    -3.0451     0.0000   306.0000 </r>
       <r>    -2.9480     0.0007   306.0001 </r>
       <r>    -2.8508    41.1627   310.0000 </r>
       <r>    -2.7536     0.0000   310.0000 </r>
       <r>    -2.6565     0.0000   310.0000 </r>
       <r>    -2.5593     0.0000   310.0000 </r>
       <r>    -2.4621    41.1628   313.9999 </r>
       <r>    -2.3649     0.0000   314.0000 </r>
       <r>    -2.2678    41.6278   318.0451 </r>
       <r>    -2.1706     0.0000   320.0000 </r>
       <r>    -2.0734     0.0000   320.0000 </r>
       <r>    -1.9762     0.0000   320.0000 </r>
       <r>    -1.8791     0.0000   320.0000 </r>
       <r>    -1.7819    56.2102   325.4622 </r>
       <r>    -1.6847     0.0000   328.0000 </r>
       <r>    -1.5875     0.0000   328.0000 </r>
       <r>    -1.4904     0.0000   328.0000 </r>
       <r>    -1.3932     0.0000   328.0000 </r>
       <r>    -1.2960    82.3268   336.0000 </r>
       <r>    -1.1988     0.0000   336.0000 </r>
       <r>    -1.1017     0.0000   336.0000 </r>
       <r>    -1.0045     0.0000   336.0000 </r>
       <r>    -0.9073    61.4612   341.9724 </r>
       <r>    -0.8102     0.0000   342.0000 </r>
       <r>    -0.7130     0.0000   342.0000 </r>
       <r>    -0.6158     0.0000   342.0000 </r>
       <r>    -0.5186     0.0000   342.0000 </r>
       <r>    -0.4215    29.0397   344.8219 </r>
       <r>    -0.3243     0.0000   348.0000 </r>
       <r>    -0.2271    41.1596   351.9996 </r>
       <r>    -0.1299     0.7830   352.0761 </r>
       <r>    -0.0328    15.9692   354.0519 </r>
       <r>     0.0644    73.0499   361.9993 </r>
       <r>     0.1616    22.1141   364.1489 </r>
       <r>     0.2588    49.1227   369.3403 </r>
       <r>     0.3559    27.9040   373.0792 </r>
       <r>     0.4531    65.0469   380.5217 </r>
       <r>     0.5503    40.5023   385.4393 </r>
       <r>     0.6475    42.0475   390.0861 </r>
       <r>     0.7446    73.5892   398.3522 </r>
       <r>     0.8418    75.2273   408.4448 </r>
       <r>     0.9390    57.2150   415.3611 </r>
       <r>     1.0361     3.7729   416.0000 </r>
       <r>     1.1333     0.0000   416.0000 </r>
       <r>     1.2305     0.0000   416.0000 </r>
       <r>     1.3277     0.0000   416.0000 </r>
       <r>     1.4248     0.0000   416.0000 </r>
       <r>     1.5220     0.0000   416.0000 </r>
       <r>     1.6192     0.0000   416.0000 </r>
       <r>     1.7164     0.0000   416.0000 </r>
       <r>     1.8135     0.0000   416.0000 </r>
       <r>     1.9107     0.0000   416.0000 </r>
       <r>     2.0079     0.0000   416.0000 </r>
       <r>     2.1051     0.0000   416.0000 </r>
       <r>     2.2022     0.0000   416.0000 </r>
       <r>     2.2994     0.0000   416.0000 </r>
      </set>
     </set>
    </array>
   </total>
  </dos>
 </calculation>
 <structure name="finalpos" >
  <crystal>
   <varray name="basis" >
    <v>      29.26085251       0.00000000       0.00000000 </v>
    <v>     -14.63042626      25.34064161       0.00000000 </v>
    <v>       0.00000000       0.00000000      20.00000000 </v>
   </varray>
   <i name="volume">  14829.77553459 </i>
   <varray name="rec_basis" >
    <v>       0.03417535       0.01973115       0.00000000 </v>
    <v>       0.00000000       0.03946230       0.00000000 </v>
    <v>       0.00000000       0.00000000       0.05000000 </v>
   </varray>
  </crystal>
  <varray name="positions" >
   <v>       0.02381036       0.51190518       0.56223422 </v>
   <v>       0.02380303       0.51190152       0.44384953 </v>
   <v>       0.05343090       0.52671545       0.50303918 </v>
   <v>       0.35925382       0.71850764       0.50288572 </v>
   <v>       0.35925382       0.64074618       0.50288572 </v>
   <v>       0.28149236       0.64074618       0.50288572 </v>
   <v>       0.38844143       0.61155857       0.50296675 </v>
   <v>       0.44386262       0.63890080       0.50300452 </v>
   <v>       0.47129037       0.61140475       0.50304091 </v>
   <v>       0.44402564       0.55597436       0.50304648 </v>
   <v>       0.38859525       0.52870963       0.50304091 </v>
   <v>       0.36109920       0.55613738       0.50300452 </v>
   <v>       0.38844143       0.77688286       0.50296675 </v>
   <v>       0.44386262       0.80496182       0.50300452 </v>
   <v>       0.47129037       0.85988562       0.50304091 </v>
   <v>       0.44402564       0.88805127       0.50304648 </v>
   <v>       0.38859525       0.85988562       0.50304091 </v>
   <v>       0.36109920       0.80496182       0.50300452 </v>
   <v>       0.22311714       0.61155857       0.50296675 </v>
   <v>       0.19503818       0.63890080       0.50300452 </v>
   <v>       0.14011438       0.61140475       0.50304091 </v>
   <v>       0.11194873       0.55597436       0.50304648 </v>
   <v>       0.14011438       0.52870963       0.50304091 </v>
   <v>       0.19503818       0.55613738       0.50300452 </v>
   <v>       0.64073231       0.28146461       0.50290789 </v>
   <v>       0.64073231       0.35926769       0.50290789 </v>
   <v>       0.71853539       0.35926769       0.50290789 </v>
   <v>       0.61151809       0.38848191       0.50298929 </v>
   <v>       0.55608883       0.36114516       0.50303231 </v>
   <v>       0.52865909       0.38864610       0.50305765 </v>
   <v>       0.55606972       0.44393028       0.50305318 </v>
   <v>       0.61135390       0.47134091       0.50305765 </v>
   <v>       0.63885484       0.44391117       0.50303231 </v>
   <v>       0.61151809       0.22303618       0.50298929 </v>
   <v>       0.55608883       0.19494368       0.50303231 </v>
   <v>       0.52865909       0.14001300       0.50305765 </v>
   <v>       0.55606972       0.11213945       0.50305318 </v>
   <v>       0.61135390       0.14001300       0.50305765 </v>
   <v>       0.63885484       0.19494368       0.50303231 </v>
   <v>       0.77696382       0.38848191       0.50298929 </v>
   <v>       0.80505632       0.36114516       0.50303231 </v>
   <v>       0.85998700       0.38864610       0.50305765 </v>
   <v>       0.88786055       0.44393028       0.50305318 </v>
   <v>       0.85998700       0.47134091       0.50305765 </v>
   <v>       0.80505632       0.44391117       0.50303231 </v>
   <v>       0.48809482       0.51190518       0.56223422 </v>
   <v>       0.52659938       0.47340062       0.50304903 </v>
   <v>       0.48809482       0.97618964       0.56223422 </v>
   <v>       0.52659938       0.05319875       0.50304903 </v>
   <v>       0.94680125       0.47340062       0.50304903 </v>
   <v>       0.48809848       0.51190152       0.44384953 </v>
   <v>       0.47328455       0.52671545       0.50303918 </v>
   <v>       0.48809848       0.97619697       0.44384953 </v>
   <v>       0.47328455       0.94656910       0.50303918 </v>
   <v>       0.38755648       0.69377824       0.50285160 </v>
   <v>       0.30622176       0.61244352       0.50285160 </v>
   <v>       0.30622176       0.69377824       0.50285160 </v>
   <v>       0.61244394       0.30622197       0.50288560 </v>
   <v>       0.69377803       0.38755606       0.50288560 </v>
   <v>       0.69377803       0.30622197       0.50288560 </v>
   <v>       0.51451623       0.48548377       0.56291707 </v>
   <v>       0.51451623       0.02903247       0.56291707 </v>
   <v>       0.97096753       0.48548377       0.56291707 </v>
   <v>       0.51452077       0.48547923       0.44317002 </v>
   <v>       0.51452077       0.02904154       0.44317002 </v>
   <v>       0.97095846       0.48547923       0.44317002 </v>
   <v>       0.04356670       0.52178335       0.61089817 </v>
   <v>       0.04356852       0.52178426       0.39518708 </v>
   <v>       0.51434786       0.88143032       0.50304914 </v>
   <v>       0.46487054       0.78298441       0.50299726 </v>
   <v>       0.36708246       0.88143032       0.50304914 </v>
   <v>       0.31811387       0.78298441       0.50299726 </v>
   <v>       0.21701559       0.68188613       0.50299726 </v>
   <v>       0.11856968       0.63291754       0.50304914 </v>
   <v>       0.21701559       0.53512946       0.50299726 </v>
   <v>       0.11856968       0.48565214       0.50304914 </v>
   <v>       0.31811387       0.53512946       0.50299726 </v>
   <v>       0.36708246       0.48565214       0.50304914 </v>
   <v>       0.51434786       0.63291754       0.50304914 </v>
   <v>       0.46487054       0.68188613       0.50299726 </v>
   <v>       0.48560990       0.11844730       0.50307295 </v>
   <v>       0.53507604       0.21691496       0.50303606 </v>
   <v>       0.63283740       0.11844730       0.50307295 </v>
   <v>       0.68183893       0.21691496       0.50303606 </v>
   <v>       0.78308504       0.31816107       0.50303606 </v>
   <v>       0.88155270       0.36716260       0.50307295 </v>
   <v>       0.78308504       0.46492396       0.50303606 </v>
   <v>       0.88155270       0.51439010       0.50307295 </v>
   <v>       0.68183893       0.46492396       0.50303606 </v>
   <v>       0.63283740       0.51439010       0.50307295 </v>
   <v>       0.48560990       0.36716260       0.50307295 </v>
   <v>       0.53507604       0.31816107       0.50303606 </v>
   <v>       0.47821665       0.52178335       0.61089817 </v>
   <v>       0.47821665       0.95643330       0.61089817 </v>
   <v>       0.47821574       0.52178426       0.39518708 </v>
   <v>       0.47821574       0.95643148       0.39518708 </v>
  </varray>
 </structure>
</modeling>
