<?xml version="1.0" encoding="ISO-8859-1"?>
<modeling>
 <generator>
  <i name="program" type="string">vasp </i>
  <i name="version" type="string">5.4.4.18Apr17-6-g9f103f2a35  </i>
  <i name="subversion" type="string">(build Jun 07 2020 16:50:00) complex            parallel </i>
  <i name="platform" type="string">LinuxIFC </i>
  <i name="date" type="string">2023 02 27 </i>
  <i name="time" type="string">09:36:49 </i>
 </generator>
 <incar>
  <i type="string" name="SYSTEM">Simulation for cell shape cell volume r</i>
  <i type="int" name="ISTART">     1</i>
  <i type="string" name="PREC">high</i>
  <i type="string" name="ALGO">48</i>
  <i type="int" name="ICHARG">    11</i>
  <i type="int" name="NELM">   200</i>
  <i type="int" name="IBRION">    -1</i>
  <i name="EDIFF">      0.00001000</i>
  <i name="EDIFFG">     -0.01000000</i>
  <i type="int" name="NSW">     0</i>
  <i type="int" name="ISIF">     2</i>
  <i name="ENCUT">    500.00000000</i>
  <i name="POTIM">      0.30000000</i>
  <i type="string" name="LREAL">A</i>
  <i type="int" name="ISMEAR">     0</i>
  <i name="SIGMA">      0.01000000</i>
  <i type="int" name="NWRITE">     0</i>
  <i type="logical" name="LWAVE"> F  </i>
  <i type="logical" name="LCHARG"> F  </i>
  <v type="int" name="KPOINT_BSE">    -1     0     0     0</v>
  <i type="int" name="NELM">   200</i>
  <i type="string" name="GGA">PE</i>
 </incar>
 <structure name="primitive_cell" >
  <crystal>
   <varray name="basis" >
    <v>      21.29595380       0.00075311       0.00000000 </v>
    <v>     -10.64727031      18.43648276       0.00000000 </v>
    <v>      -0.00000002      -0.00066028      20.00000000 </v>
   </varray>
   <i name="volume">   7852.61007329 </i>
   <varray name="rec_basis" >
    <v>       0.04695632       0.02711779       0.00000090 </v>
    <v>      -0.00000192       0.05423917       0.00000179 </v>
    <v>       0.00000000       0.00000000       0.05000000 </v>
   </varray>
  </crystal>
  <varray name="positions" >
   <v>      -0.23683558       0.30027030       0.46071920 </v>
   <v>      -0.29914248       0.23799277       0.46070203 </v>
   <v>      -0.18284136       0.31129047      -0.49671574 </v>
   <v>      -0.23407312       0.40095687      -0.49562693 </v>
   <v>      -0.31025930       0.18392612      -0.49677844 </v>
   <v>      -0.19029127       0.25613345      -0.45298789 </v>
   <v>      -0.11590340       0.38306610      -0.49753411 </v>
   <v>      -0.25517146       0.19127475      -0.45301883 </v>
   <v>      -0.18272633       0.45169828      -0.49634396 </v>
   <v>      -0.11683389       0.44941970      -0.49853358 </v>
   <v>      -0.39997937       0.23523220      -0.49562920 </v>
   <v>      -0.14675600       0.26575056      -0.41840038 </v>
   <v>      -0.04937115       0.38494145      -0.49602975 </v>
   <v>      -0.38204749       0.11699332      -0.49769028 </v>
   <v>      -0.04936193       0.33366554      -0.49737734 </v>
   <v>      -0.26485490       0.14769238      -0.41845069 </v>
   <v>      -0.45068971       0.18384304      -0.49629143 </v>
   <v>      -0.18275987      -0.48423346      -0.49646105 </v>
   <v>      -0.44838204       0.11794009      -0.49858397 </v>
   <v>      -0.04938399      -0.48328504      -0.49863106 </v>
   <v>      -0.23412713      -0.48489443      -0.49580146 </v>
   <v>      -0.38392336       0.05043610      -0.49638189 </v>
   <v>      -0.33264831       0.05045930      -0.49782322 </v>
   <v>       0.01716003       0.44963524      -0.49688201 </v>
   <v>       0.01807416      -0.48307381      -0.49773134 </v>
   <v>       0.48523699       0.18383518      -0.49626768 </v>
   <v>      -0.11689250      -0.41602292      -0.49877741 </v>
   <v>      -0.04941716      -0.41579957      -0.49873690 </v>
   <v>       0.48587221       0.23520572      -0.49553913 </v>
   <v>       0.48434466       0.05045165      -0.49869420 </v>
   <v>       0.08408600       0.44481263      -0.49581183 </v>
   <v>      -0.44860248      -0.01613353      -0.49728727 </v>
   <v>       0.04759165       0.36245040      -0.41809718 </v>
   <v>       0.41705323       0.11792400      -0.49851419 </v>
   <v>       0.48414263      -0.01702666      -0.49797992 </v>
   <v>       0.09129559       0.39672130      -0.45239944 </v>
   <v>       0.08388880      -0.41486386      -0.49461958 </v>
   <v>      -0.11602130      -0.34876448      -0.49799522 </v>
   <v>       0.41686249       0.05044680      -0.49861333 </v>
   <v>      -0.23701215      -0.38693521       0.46015670 </v>
   <v>       0.01801059      -0.34849562      -0.49788446 </v>
   <v>      -0.36136300      -0.04646134      -0.41866114 </v>
   <v>       0.13828441       0.48813494       0.46195997 </v>
   <v>      -0.40011600      -0.48505086      -0.49566918 </v>
   <v>      -0.18300056      -0.34401298      -0.49722650 </v>
   <v>      -0.44383893      -0.08311517      -0.49623896 </v>
   <v>       0.08385352      -0.35079374      -0.49467592 </v>
   <v>       0.13525477      -0.41416549      -0.49317823 </v>
   <v>       0.48571445       0.40084193      -0.49547287 </v>
   <v>      -0.29932667      -0.38696854       0.46022111 </v>
   <v>       0.38770396       0.23784929       0.46048623 </v>
   <v>      -0.39566093      -0.09024678      -0.45289113 </v>
   <v>       0.34978301       0.11698424      -0.49755370 </v>
   <v>      -0.04950379      -0.28404916      -0.49646520 </v>
   <v>       0.15616670       0.39673505      -0.45241386 </v>
   <v>       0.01705696      -0.28213798      -0.49716649 </v>
   <v>       0.41598157      -0.08288664      -0.49487608 </v>
   <v>      -0.45080176      -0.48435131      -0.49635062 </v>
   <v>       0.38764981       0.30013901       0.46048504 </v>
   <v>       0.34490239       0.18390215      -0.49682693 </v>
   <v>       0.34959817      -0.01702959      -0.49773077 </v>
   <v>       0.48509658       0.45158226      -0.49626512 </v>
   <v>       0.20056523       0.48815650       0.46193100 </v>
   <v>      -0.48737904      -0.13749290       0.46174136 </v>
   <v>       0.13518493      -0.30006263      -0.49328239 </v>
   <v>      -0.19040005      -0.29636985      -0.45336939 </v>
   <v>       0.16562908       0.36248481      -0.41811559 </v>
   <v>       0.21145494       0.44481568      -0.49584290 </v>
   <v>      -0.31035890      -0.34406399      -0.49710829 </v>
   <v>       0.35191770      -0.08288711      -0.49472464 </v>
   <v>       0.41533081      -0.13425145      -0.49363566 </v>
   <v>      -0.39564354      -0.15511675      -0.45283621 </v>
   <v>      -0.04950812      -0.23276918      -0.49786108 </v>
   <v>      -0.14685138      -0.26252500      -0.41876606 </v>
   <v>       0.28511843       0.05044002      -0.49597137 </v>
   <v>      -0.25525571      -0.29638640      -0.45331708 </v>
   <v>       0.28325314      -0.01611082      -0.49681760 </v>
   <v>       0.34478385       0.31120778      -0.49685005 </v>
   <v>       0.29719177       0.19126974      -0.45305069 </v>
   <v>      -0.36132975      -0.16450438      -0.41855106 </v>
   <v>      -0.44845386      -0.41612524      -0.49866047 </v>
   <v>       0.08401049      -0.21037117      -0.49601552 </v>
   <v>      -0.48734665      -0.19978754       0.46177348 </v>
   <v>       0.41693468       0.44932395      -0.49852843 </v>
   <v>      -0.38209394      -0.34885499      -0.49782053 </v>
   <v>      -0.44379046      -0.21050571      -0.49614880 </v>
   <v>       0.13836087      -0.19954525       0.46197223 </v>
   <v>       0.30122812      -0.13426045      -0.49332310 </v>
   <v>       0.29711318       0.25610078      -0.45306393 </v>
   <v>       0.23370418       0.33362356      -0.49734308 </v>
   <v>       0.26335865       0.14771130      -0.41844989 </v>
   <v>       0.23385012       0.05042858      -0.49723761 </v>
   <v>       0.34964226       0.38299299      -0.49759040 </v>
   <v>       0.28317839       0.44959717      -0.49691868 </v>
   <v>      -0.26490365      -0.26251953      -0.41867218 </v>
   <v>       0.30126880      -0.41422336      -0.49336013 </v>
   <v>       0.04737066      -0.16444004      -0.41850658 </v>
   <v>       0.09117853      -0.15504126      -0.45265807 </v>
   <v>       0.28499837       0.38488638      -0.49604188 </v>
   <v>       0.48430243      -0.41589570      -0.49869179 </v>
   <v>       0.21150170      -0.08304852      -0.49575577 </v>
   <v>       0.41679338      -0.48336903      -0.49863201 </v>
   <v>      -0.33261658      -0.23287269      -0.49776721 </v>
   <v>       0.26321194       0.26573634      -0.41847485 </v>
   <v>      -0.38389644      -0.28413748      -0.49634753 </v>
   <v>       0.20067342      -0.13730067       0.46208611 </v>
   <v>       0.35193503      -0.41493164      -0.49473594 </v>
   <v>      -0.44855334      -0.28224400      -0.49716679 </v>
   <v>       0.34955480      -0.48313873      -0.49778735 </v>
   <v>       0.41542741      -0.30014029      -0.49347596 </v>
   <v>       0.16556787      -0.04650259      -0.41818805 </v>
   <v>       0.15611731      -0.09021823      -0.45249287 </v>
   <v>       0.48416170      -0.34859788      -0.49790274 </v>
   <v>       0.41602925      -0.35087519      -0.49478655 </v>
  </varray>
 </structure>
 <varray name="primitive_index" >
  <v type="int" >        1 </v>
  <v type="int" >        2 </v>
  <v type="int" >       32 </v>
  <v type="int" >       89 </v>
  <v type="int" >       29 </v>
  <v type="int" >       31 </v>
  <v type="int" >       25 </v>
  <v type="int" >       30 </v>
  <v type="int" >       28 </v>
  <v type="int" >       26 </v>
  <v type="int" >      108 </v>
  <v type="int" >       91 </v>
  <v type="int" >       24 </v>
  <v type="int" >       57 </v>
  <v type="int" >       86 </v>
  <v type="int" >       92 </v>
  <v type="int" >       60 </v>
  <v type="int" >       20 </v>
  <v type="int" >       58 </v>
  <v type="int" >       21 </v>
  <v type="int" >       90 </v>
  <v type="int" >       56 </v>
  <v type="int" >      103 </v>
  <v type="int" >       23 </v>
  <v type="int" >       22 </v>
  <v type="int" >       68 </v>
  <v type="int" >       18 </v>
  <v type="int" >       13 </v>
  <v type="int" >      107 </v>
  <v type="int" >       53 </v>
  <v type="int" >       49 </v>
  <v type="int" >       55 </v>
  <v type="int" >      102 </v>
  <v type="int" >       66 </v>
  <v type="int" >       54 </v>
  <v type="int" >       50 </v>
  <v type="int" >       27 </v>
  <v type="int" >       17 </v>
  <v type="int" >       61 </v>
  <v type="int" >        6 </v>
  <v type="int" >       14 </v>
  <v type="int" >       99 </v>
  <v type="int" >       12 </v>
  <v type="int" >      113 </v>
  <v type="int" >       37 </v>
  <v type="int" >       48 </v>
  <v type="int" >       19 </v>
  <v type="int" >       87 </v>
  <v type="int" >      114 </v>
  <v type="int" >        5 </v>
  <v type="int" >        3 </v>
  <v type="int" >       47 </v>
  <v type="int" >       65 </v>
  <v type="int" >       16 </v>
  <v type="int" >       51 </v>
  <v type="int" >       15 </v>
  <v type="int" >       59 </v>
  <v type="int" >       84 </v>
  <v type="int" >        4 </v>
  <v type="int" >       36 </v>
  <v type="int" >       62 </v>
  <v type="int" >       76 </v>
  <v type="int" >       11 </v>
  <v type="int" >        9 </v>
  <v type="int" >       88 </v>
  <v type="int" >       38 </v>
  <v type="int" >      101 </v>
  <v type="int" >       52 </v>
  <v type="int" >       40 </v>
  <v type="int" >       67 </v>
  <v type="int" >      106 </v>
  <v type="int" >       46 </v>
  <v type="int" >       85 </v>
  <v type="int" >       96 </v>
  <v type="int" >       64 </v>
  <v type="int" >       39 </v>
  <v type="int" >       63 </v>
  <v type="int" >       33 </v>
  <v type="int" >       35 </v>
  <v type="int" >      100 </v>
  <v type="int" >       82 </v>
  <v type="int" >       44 </v>
  <v type="int" >       10 </v>
  <v type="int" >       74 </v>
  <v type="int" >       81 </v>
  <v type="int" >       45 </v>
  <v type="int" >        7 </v>
  <v type="int" >      105 </v>
  <v type="int" >       34 </v>
  <v type="int" >      109 </v>
  <v type="int" >       93 </v>
  <v type="int" >      104 </v>
  <v type="int" >       73 </v>
  <v type="int" >       71 </v>
  <v type="int" >       95 </v>
  <v type="int" >      112 </v>
  <v type="int" >       97 </v>
  <v type="int" >       43 </v>
  <v type="int" >       72 </v>
  <v type="int" >       77 </v>
  <v type="int" >       41 </v>
  <v type="int" >       69 </v>
  <v type="int" >      110 </v>
  <v type="int" >       94 </v>
  <v type="int" >       80 </v>
  <v type="int" >        8 </v>
  <v type="int" >       75 </v>
  <v type="int" >       79 </v>
  <v type="int" >       70 </v>
  <v type="int" >      111 </v>
  <v type="int" >       98 </v>
  <v type="int" >       42 </v>
  <v type="int" >       78 </v>
  <v type="int" >       83 </v>
 </varray>
 <kpoints>
  <generation param="listgenerated">
   <i name="divisions" type="int">      20 </i>
   <v>       0.00000000       0.00000000       0.00000000 </v>
   <v>       0.50000000       0.00000000       0.00000000 </v>
   <v>       0.33333333       0.33333333       0.00000000 </v>
   <v>       0.00000000       0.00000000       0.00000000 </v>
  </generation>
  <varray name="kpointlist" >
   <v>       0.00000000       0.00000000       0.00000000 </v>
   <v>       0.02631579       0.00000000       0.00000000 </v>
   <v>       0.05263158       0.00000000       0.00000000 </v>
   <v>       0.07894737       0.00000000       0.00000000 </v>
   <v>       0.10526316       0.00000000       0.00000000 </v>
   <v>       0.13157895       0.00000000       0.00000000 </v>
   <v>       0.15789474       0.00000000       0.00000000 </v>
   <v>       0.18421053       0.00000000       0.00000000 </v>
   <v>       0.21052632       0.00000000       0.00000000 </v>
   <v>       0.23684211       0.00000000       0.00000000 </v>
   <v>       0.26315789       0.00000000       0.00000000 </v>
   <v>       0.28947368       0.00000000       0.00000000 </v>
   <v>       0.31578947       0.00000000       0.00000000 </v>
   <v>       0.34210526       0.00000000       0.00000000 </v>
   <v>       0.36842105       0.00000000       0.00000000 </v>
   <v>       0.39473684       0.00000000       0.00000000 </v>
   <v>       0.42105263       0.00000000       0.00000000 </v>
   <v>       0.44736842       0.00000000       0.00000000 </v>
   <v>       0.47368421       0.00000000       0.00000000 </v>
   <v>       0.50000000       0.00000000       0.00000000 </v>
   <v>       0.50000000       0.00000000       0.00000000 </v>
   <v>       0.49122807       0.01754386       0.00000000 </v>
   <v>       0.48245614       0.03508772       0.00000000 </v>
   <v>       0.47368421       0.05263158       0.00000000 </v>
   <v>       0.46491228       0.07017544       0.00000000 </v>
   <v>       0.45614035       0.08771930       0.00000000 </v>
   <v>       0.44736842       0.10526316       0.00000000 </v>
   <v>       0.43859649       0.12280702       0.00000000 </v>
   <v>       0.42982456       0.14035088       0.00000000 </v>
   <v>       0.42105263       0.15789474       0.00000000 </v>
   <v>       0.41228070       0.17543860       0.00000000 </v>
   <v>       0.40350877       0.19298246       0.00000000 </v>
   <v>       0.39473684       0.21052632       0.00000000 </v>
   <v>       0.38596491       0.22807018       0.00000000 </v>
   <v>       0.37719298       0.24561404       0.00000000 </v>
   <v>       0.36842105       0.26315789       0.00000000 </v>
   <v>       0.35964912       0.28070175       0.00000000 </v>
   <v>       0.35087719       0.29824561       0.00000000 </v>
   <v>       0.34210526       0.31578947       0.00000000 </v>
   <v>       0.33333333       0.33333333       0.00000000 </v>
   <v>       0.33333333       0.33333333       0.00000000 </v>
   <v>       0.31578947       0.31578947       0.00000000 </v>
   <v>       0.29824561       0.29824561       0.00000000 </v>
   <v>       0.28070175       0.28070175       0.00000000 </v>
   <v>       0.26315789       0.26315789       0.00000000 </v>
   <v>       0.24561404       0.24561404       0.00000000 </v>
   <v>       0.22807018       0.22807018       0.00000000 </v>
   <v>       0.21052632       0.21052632       0.00000000 </v>
   <v>       0.19298246       0.19298246       0.00000000 </v>
   <v>       0.17543860       0.17543860       0.00000000 </v>
   <v>       0.15789474       0.15789474       0.00000000 </v>
   <v>       0.14035088       0.14035088       0.00000000 </v>
   <v>       0.12280702       0.12280702       0.00000000 </v>
   <v>       0.10526316       0.10526316       0.00000000 </v>
   <v>       0.08771930       0.08771930       0.00000000 </v>
   <v>       0.07017544       0.07017544       0.00000000 </v>
   <v>       0.05263158       0.05263158       0.00000000 </v>
   <v>       0.03508772       0.03508772       0.00000000 </v>
   <v>       0.01754386       0.01754386       0.00000000 </v>
   <v>       0.00000000       0.00000000       0.00000000 </v>
  </varray>
  <varray name="weights" >
   <v>       0.01666667 </v>
   <v>       0.01666667 </v>
   <v>       0.01666667 </v>
   <v>       0.01666667 </v>
   <v>       0.01666667 </v>
   <v>       0.01666667 </v>
   <v>       0.01666667 </v>
   <v>       0.01666667 </v>
   <v>       0.01666667 </v>
   <v>       0.01666667 </v>
   <v>       0.01666667 </v>
   <v>       0.01666667 </v>
   <v>       0.01666667 </v>
   <v>       0.01666667 </v>
   <v>       0.01666667 </v>
   <v>       0.01666667 </v>
   <v>       0.01666667 </v>
   <v>       0.01666667 </v>
   <v>       0.01666667 </v>
   <v>       0.01666667 </v>
   <v>       0.01666667 </v>
   <v>       0.01666667 </v>
   <v>       0.01666667 </v>
   <v>       0.01666667 </v>
   <v>       0.01666667 </v>
   <v>       0.01666667 </v>
   <v>       0.01666667 </v>
   <v>       0.01666667 </v>
   <v>       0.01666667 </v>
   <v>       0.01666667 </v>
   <v>       0.01666667 </v>
   <v>       0.01666667 </v>
   <v>       0.01666667 </v>
   <v>       0.01666667 </v>
   <v>       0.01666667 </v>
   <v>       0.01666667 </v>
   <v>       0.01666667 </v>
   <v>       0.01666667 </v>
   <v>       0.01666667 </v>
   <v>       0.01666667 </v>
   <v>       0.01666667 </v>
   <v>       0.01666667 </v>
   <v>       0.01666667 </v>
   <v>       0.01666667 </v>
   <v>       0.01666667 </v>
   <v>       0.01666667 </v>
   <v>       0.01666667 </v>
   <v>       0.01666667 </v>
   <v>       0.01666667 </v>
   <v>       0.01666667 </v>
   <v>       0.01666667 </v>
   <v>       0.01666667 </v>
   <v>       0.01666667 </v>
   <v>       0.01666667 </v>
   <v>       0.01666667 </v>
   <v>       0.01666667 </v>
   <v>       0.01666667 </v>
   <v>       0.01666667 </v>
   <v>       0.01666667 </v>
   <v>       0.01666667 </v>
  </varray>
 </kpoints>
 <parameters>
  <separator name="general" >
   <i type="string" name="SYSTEM">Simulation for cell shape cell volume r</i>
   <i type="logical" name="LCOMPAT"> F  </i>
  </separator>
  <separator name="electronic" >
   <i type="string" name="PREC">high</i>
   <i name="ENMAX">    500.00000000</i>
   <i name="ENAUG">    644.87300000</i>
   <i name="EDIFF">      0.00001000</i>
   <i type="int" name="IALGO">    38</i>
   <i type="int" name="IWAVPR">    10</i>
   <i type="int" name="NBANDS">   256</i>
   <i name="NELECT">    378.00000000</i>
   <i type="int" name="TURBO">     0</i>
   <i type="int" name="IRESTART">     0</i>
   <i type="int" name="NREBOOT">     0</i>
   <i type="int" name="NMIN">     0</i>
   <i name="EREF">      0.00000000</i>
   <separator name="electronic smearing" >
    <i type="int" name="ISMEAR">     0</i>
    <i name="SIGMA">      0.01000000</i>
    <i name="KSPACING">      0.50000000</i>
    <i type="logical" name="KGAMMA"> T  </i>
   </separator>
   <separator name="electronic projectors" >
    <i type="logical" name="LREAL"> T  </i>
    <v name="ROPT">     -0.00040000     -0.00040000     -0.00040000</v>
    <i type="int" name="LMAXPAW">  -100</i>
    <i type="int" name="LMAXMIX">     2</i>
    <i type="logical" name="NLSPLINE"> F  </i>
   </separator>
   <separator name="electronic startup" >
    <i type="int" name="ISTART">     1</i>
    <i type="int" name="ICHARG">    11</i>
    <i type="int" name="INIWAV">     1</i>
   </separator>
   <separator name="electronic spin" >
    <i type="int" name="ISPIN">     1</i>
    <i type="logical" name="LNONCOLLINEAR"> F  </i>
    <v name="MAGMOM">      1.00000000      1.00000000      1.00000000      1.00000000      1.00000000      1.00000000      1.00000000      1.00000000      1.00000000      1.00000000      1.00000000      1.00000000      1.00000000      1.00000000      1.00000000      1.00000000      1.00000000      1.00000000      1.00000000      1.00000000
      1.00000000      1.00000000      1.00000000      1.00000000      1.00000000      1.00000000      1.00000000      1.00000000      1.00000000      1.00000000      1.00000000      1.00000000      1.00000000      1.00000000      1.00000000      1.00000000      1.00000000      1.00000000      1.00000000      1.00000000
      1.00000000      1.00000000      1.00000000      1.00000000      1.00000000      1.00000000      1.00000000      1.00000000      1.00000000      1.00000000      1.00000000      1.00000000      1.00000000      1.00000000      1.00000000      1.00000000      1.00000000      1.00000000      1.00000000      1.00000000
      1.00000000      1.00000000      1.00000000      1.00000000      1.00000000      1.00000000      1.00000000      1.00000000      1.00000000      1.00000000      1.00000000      1.00000000      1.00000000      1.00000000      1.00000000      1.00000000      1.00000000      1.00000000      1.00000000      1.00000000
      1.00000000      1.00000000      1.00000000      1.00000000      1.00000000      1.00000000      1.00000000      1.00000000      1.00000000      1.00000000      1.00000000      1.00000000      1.00000000      1.00000000      1.00000000      1.00000000      1.00000000      1.00000000      1.00000000      1.00000000
      1.00000000      1.00000000      1.00000000      1.00000000      1.00000000      1.00000000      1.00000000      1.00000000      1.00000000      1.00000000      1.00000000      1.00000000      1.00000000      1.00000000</v>
    <i name="NUPDOWN">     -1.00000000</i>
    <i type="logical" name="LSORBIT"> F  </i>
    <v name="SAXIS">      0.00000000      0.00000000      1.00000000</v>
    <i type="logical" name="LSPIRAL"> F  </i>
    <v name="QSPIRAL">      0.00000000      0.00000000      0.00000000</v>
    <i type="logical" name="LZEROZ"> F  </i>
   </separator>
   <separator name="electronic exchange-correlation" >
    <i type="logical" name="LASPH"> F  </i>
    <i type="logical" name="LMETAGGA"> F  </i>
   </separator>
   <separator name="electronic convergence" >
    <i type="int" name="NELM">   200</i>
    <i type="int" name="NELMDL">     0</i>
    <i type="int" name="NELMIN">     2</i>
    <i name="ENINI">    500.00000000</i>
    <separator name="electronic convergence detail" >
     <i type="logical" name="LDIAG"> T  </i>
     <i type="logical" name="LSUBROT"> F  </i>
     <i name="WEIMIN">      0.00000000</i>
     <i name="EBREAK">      0.00000001</i>
     <i name="DEPER">      0.30000000</i>
     <i type="int" name="NRMM">     4</i>
     <i name="TIME">      0.40000000</i>
    </separator>
   </separator>
   <separator name="electronic mixer" >
    <i name="AMIX">      0.40000000</i>
    <i name="BMIX">      1.00000000</i>
    <i name="AMIN">      0.10000000</i>
    <i name="AMIX_MAG">      1.60000000</i>
    <i name="BMIX_MAG">      1.00000000</i>
    <separator name="electronic mixer details" >
     <i type="int" name="IMIX">     4</i>
     <i type="logical" name="MIXFIRST"> F  </i>
     <i type="int" name="MAXMIX">   -45</i>
     <i name="WC">    100.00000000</i>
     <i type="int" name="INIMIX">     1</i>
     <i type="int" name="MIXPRE">     1</i>
     <i type="int" name="MREMOVE">     5</i>
    </separator>
   </separator>
   <separator name="electronic dipolcorrection" >
    <i type="logical" name="LDIPOL"> F  </i>
    <i type="logical" name="LMONO"> F  </i>
    <i type="int" name="IDIPOL">     0</i>
    <i name="EPSILON">      1.00000000</i>
    <v name="DIPOL">   -100.00000000   -100.00000000   -100.00000000</v>
    <i name="EFIELD">      0.00000000</i>
   </separator>
  </separator>
  <separator name="grids" >
   <i type="int" name="NGX">   160</i>
   <i type="int" name="NGY">   160</i>
   <i type="int" name="NGZ">   150</i>
   <i type="int" name="NGXF">   240</i>
   <i type="int" name="NGYF">   240</i>
   <i type="int" name="NGZF">   224</i>
   <i type="logical" name="ADDGRID"> F  </i>
  </separator>
  <separator name="ionic" >
   <i type="int" name="NSW">     0</i>
   <i type="int" name="IBRION">    -1</i>
   <i type="int" name="MDALGO">     0</i>
   <i type="int" name="ISIF">     2</i>
   <i name="PSTRESS">      0.00000000</i>
   <i name="EDIFFG">     -0.01000000</i>
   <i type="int" name="NFREE">     0</i>
   <i name="POTIM">      0.30000000</i>
   <i name="SMASS">     -3.00000000</i>
   <i name="SCALEE">      1.00000000</i>
  </separator>
  <separator name="ionic md" >
   <i name="TEBEG">      0.00010000</i>
   <i name="TEEND">      0.00010000</i>
   <i type="int" name="NBLOCK">     1</i>
   <i type="int" name="KBLOCK">     1</i>
   <i type="int" name="NPACO">   256</i>
   <i name="APACO">     16.00000000</i>
  </separator>
  <separator name="symmetry" >
   <i type="int" name="ISYM">     2</i>
   <i name="SYMPREC">      0.00001000</i>
  </separator>
  <separator name="dos" >
   <i type="int" name="LORBIT">     0</i>
   <v name="RWIGS">     -1.00000000     -1.00000000     -1.00000000</v>
   <i type="int" name="NEDOS">   301</i>
   <i name="EMIN">     10.00000000</i>
   <i name="EMAX">    -10.00000000</i>
   <i name="EFERMI">      0.00000000</i>
  </separator>
  <separator name="writing" >
   <i type="int" name="NWRITE">     0</i>
   <i type="logical" name="LWAVE"> F  </i>
   <i type="logical" name="LDOWNSAMPLE"> F  </i>
   <i type="logical" name="LCHARG"> F  </i>
   <i type="logical" name="LPARD"> F  </i>
   <i type="logical" name="LVTOT"> F  </i>
   <i type="logical" name="LVHAR"> F  </i>
   <i type="logical" name="LELF"> F  </i>
   <i type="logical" name="LOPTICS"> F  </i>
   <v name="STM">      0.00000000      0.00000000      0.00000000      0.00000000      0.00000000      0.00000000      0.00000000</v>
  </separator>
  <separator name="performance" >
   <i type="int" name="NPAR">    16</i>
   <i type="int" name="NSIM">     4</i>
   <i type="int" name="NBLK">    -1</i>
   <i type="logical" name="LPLANE"> T  </i>
   <i type="logical" name="LSCALAPACK"> T  </i>
   <i type="logical" name="LSCAAWARE"> F  </i>
   <i type="logical" name="LSCALU"> F  </i>
   <i type="logical" name="LASYNC"> F  </i>
   <i type="logical" name="LORBITALREAL"> F  </i>
  </separator>
  <separator name="miscellaneous" >
   <i type="int" name="IDIOT">     3</i>
   <i type="int" name="ISPECIAL">     0</i>
   <i type="logical" name="LMUSIC"> F  </i>
   <v name="POMASS">     14.00100000     12.01100000      1.00000000</v>
   <v name="DARWINR">      0.00000000      0.00000000      0.00000000</v>
   <v name="DARWINV">      1.00000000      1.00000000      1.00000000</v>
   <i type="logical" name="LCORR"> T  </i>
  </separator>
  <i type="logical" name="GGA_COMPAT"> T  </i>
  <i type="logical" name="LBERRY"> F  </i>
  <i type="int" name="ICORELEVEL">     0</i>
  <i type="logical" name="LDAU"> F  </i>
  <i type="int" name="I_CONSTRAINED_M">     0</i>
  <separator name="electronic exchange-correlation" >
   <i type="string" name="GGA">PE</i>
   <i type="int" name="VOSKOWN">     0</i>
   <i type="logical" name="LHFCALC"> F  </i>
   <i type="string" name="PRECFOCK"></i>
   <i type="logical" name="LSYMGRAD"> F  </i>
   <i type="logical" name="LHFONE"> F  </i>
   <i type="logical" name="LRHFCALC"> F  </i>
   <i type="logical" name="LTHOMAS"> F  </i>
   <i type="logical" name="LMODELHF"> F  </i>
   <i name="ENCUT4O">     -1.00000000</i>
   <i type="int" name="EXXOEP">     0</i>
   <i type="int" name="FOURORBIT">     0</i>
   <i name="AEXX">      0.00000000</i>
   <i name="HFALPHA">      0.00000000</i>
   <i name="MCALPHA">      0.00000000</i>
   <i name="ALDAX">      1.00000000</i>
   <i name="AGGAX">      1.00000000</i>
   <i name="ALDAC">      1.00000000</i>
   <i name="AGGAC">      1.00000000</i>
   <i type="int" name="NKREDX">     1</i>
   <i type="int" name="NKREDY">     1</i>
   <i type="int" name="NKREDZ">     1</i>
   <i type="logical" name="SHIFTRED"> F  </i>
   <i type="logical" name="ODDONLY"> F  </i>
   <i type="logical" name="EVENONLY"> F  </i>
   <i type="int" name="LMAXFOCK">     0</i>
   <i type="int" name="NMAXFOCKAE">     0</i>
   <i type="logical" name="LFOCKAEDFT"> F  </i>
   <i name="HFSCREEN">      0.00000000</i>
   <i name="HFSCREENC">      0.00000000</i>
   <i type="int" name="NBANDSGWLOW">     0</i>
  </separator>
  <separator name="vdW DFT" >
   <i type="logical" name="LUSE_VDW"> F  </i>
   <i name="Zab_VDW">     -0.84910000</i>
   <i name="PARAM1">      0.12340000</i>
   <i name="PARAM2">      1.00000000</i>
   <i name="PARAM3">      0.00000000</i>
  </separator>
  <separator name="model GW" >
   <i type="int" name="MODEL_GW">     0</i>
   <i name="MODEL_EPS0">     41.32952670</i>
   <i name="MODEL_ALPHA">      1.00000000</i>
  </separator>
  <separator name="linear response parameters" >
   <i type="logical" name="LEPSILON"> F  </i>
   <i type="logical" name="LRPA"> F  </i>
   <i type="logical" name="LNABLA"> F  </i>
   <i type="logical" name="LVEL"> F  </i>
   <i type="int" name="KINTER">     0</i>
   <i name="CSHIFT">      0.10000000</i>
   <i name="OMEGAMAX">     -1.00000000</i>
   <i name="DEG_THRESHOLD">      0.00200000</i>
   <i name="RTIME">     -0.10000000</i>
   <i name="WPLASMAI">      0.00000000</i>
   <v name="DFIELD">      0.00000000      0.00000000      0.00000000</v>
   <v name="WPLASMA">      0.00000000      0.00000000      0.00000000      0.00000000      0.00000000      0.00000000      0.00000000      0.00000000      0.00000000</v>
  </separator>
  <separator name="orbital magnetization" >
   <i type="logical" name="NUCIND"> F  </i>
   <v name="MAGPOS">      0.00000000      0.00000000      0.00000000</v>
   <i type="logical" name="LNICSALL"> T  </i>
   <i type="logical" name="ORBITALMAG"> F  </i>
   <i type="logical" name="LMAGBLOCH"> F  </i>
   <i type="logical" name="LCHIMAG"> F  </i>
   <i type="logical" name="LGAUGE"> T  </i>
   <i type="int" name="MAGATOM">     0</i>
   <v name="MAGDIPOL">      0.00000000      0.00000000      0.00000000</v>
   <v name="AVECCONST">      0.00000000      0.00000000      0.00000000</v>
  </separator>
  <separator name="response functions" >
   <i type="logical" name="LADDER"> F  </i>
   <i type="logical" name="LRPAFORCE"> F  </i>
   <i type="logical" name="LFXC"> F  </i>
   <i type="logical" name="LHARTREE"> T  </i>
   <i type="int" name="IBSE">     0</i>
   <v type="int" name="KPOINT">    -1     0     0     0</v>
   <i type="logical" name="LTCTE"> F  </i>
   <i type="logical" name="LTETE"> F  </i>
   <i type="logical" name="LTRIPLET"> F  </i>
   <i type="logical" name="LFXCEPS"> F  </i>
   <i type="logical" name="LFXHEG"> F  </i>
   <i type="int" name="NATURALO">     2</i>
   <i type="logical" name="L2ORDER"> F  </i>
   <i type="logical" name="LMP2LT"> F  </i>
   <i type="logical" name="LUSEW"> F  </i>
   <i name="ENCUTGW">     -2.00000000</i>
   <i name="ENCUTGWSOFT">     -2.00000000</i>
   <i name="ENCUTLF">     -1.00000000</i>
   <i type="int" name="LMAXMP2">    -1</i>
   <i name="SCISSOR">      0.00000000</i>
   <i type="int" name="NOMEGA">     0</i>
   <i type="int" name="NOMEGAR">     0</i>
   <i type="int" name="NBANDSGW">    -1</i>
   <i type="int" name="NBANDSO">    -1</i>
   <i type="int" name="NBANDSV">    -1</i>
   <i type="int" name="NELM">   200</i>
   <i type="int" name="NELMHF">     1</i>
   <i type="int" name="DIM">     3</i>
   <i type="int" name="ANTIRES">     0</i>
   <i name="OMEGAMAX">    -30.00000000</i>
   <i name="OMEGAMIN">    -30.00000000</i>
   <i name="OMEGATL">   -200.00000000</i>
   <i type="int" name="OMEGAGRID">   140</i>
   <i name="CSHIFT">     -0.10000000</i>
   <i type="logical" name="SELFENERGY"> F  </i>
   <i type="logical" name="LSPECTRAL"> F  </i>
   <i type="logical" name="LSPECTRALGW"> F  </i>
   <i type="logical" name="LSINGLES"> F  </i>
   <i type="logical" name="LFERMIGW"> F  </i>
   <i type="logical" name="ODDONLYGW"> F  </i>
   <i type="logical" name="EVENONLYGW"> F  </i>
   <i type="int" name="NKREDLFX">     1</i>
   <i type="int" name="NKREDLFY">     1</i>
   <i type="int" name="NKREDLFZ">     1</i>
   <i type="int" name="MAXMEM">  2800</i>
   <i type="int" name="TELESCOPE">     0</i>
   <i type="int" name="TAUPAR">     1</i>
   <i type="int" name="OMEGAPAR">    -1</i>
   <i name="LAMBDA">      1.00000000</i>
  </separator>
  <separator name="External order field" >
   <i name="OFIELD_KAPPA">      0.00000000</i>
   <v name="OFIELD_K">      0.00000000      0.00000000      0.00000000</v>
   <i name="OFIELD_Q6_NEAR">      0.00000000</i>
   <i name="OFIELD_Q6_FAR">      0.00000000</i>
   <i name="OFIELD_A">      0.00000000</i>
  </separator>
  <separator name="solvation model" >
   <i type="logical" name="LSOL"> F  </i>
  </separator>
 </parameters>
 <atominfo>
  <atoms>     114 </atoms>
  <types>       3 </types>
  <array name="atoms" >
   <dimension dim="1">ion</dimension>
   <field type="string">element</field>
   <field type="int">atomtype</field>
   <set>
    <rc><c>N </c><c>   1</c></rc>
    <rc><c>N </c><c>   1</c></rc>
    <rc><c>N </c><c>   1</c></rc>
    <rc><c>N </c><c>   1</c></rc>
    <rc><c>N </c><c>   1</c></rc>
    <rc><c>N </c><c>   1</c></rc>
    <rc><c>N </c><c>   1</c></rc>
    <rc><c>N </c><c>   1</c></rc>
    <rc><c>N </c><c>   1</c></rc>
    <rc><c>N </c><c>   1</c></rc>
    <rc><c>N </c><c>   1</c></rc>
    <rc><c>N </c><c>   1</c></rc>
    <rc><c>C </c><c>   2</c></rc>
    <rc><c>C </c><c>   2</c></rc>
    <rc><c>C </c><c>   2</c></rc>
    <rc><c>C </c><c>   2</c></rc>
    <rc><c>C </c><c>   2</c></rc>
    <rc><c>C </c><c>   2</c></rc>
    <rc><c>C </c><c>   2</c></rc>
    <rc><c>C </c><c>   2</c></rc>
    <rc><c>C </c><c>   2</c></rc>
    <rc><c>C </c><c>   2</c></rc>
    <rc><c>C </c><c>   2</c></rc>
    <rc><c>C </c><c>   2</c></rc>
    <rc><c>C </c><c>   2</c></rc>
    <rc><c>C </c><c>   2</c></rc>
    <rc><c>C </c><c>   2</c></rc>
    <rc><c>C </c><c>   2</c></rc>
    <rc><c>C </c><c>   2</c></rc>
    <rc><c>C </c><c>   2</c></rc>
    <rc><c>C </c><c>   2</c></rc>
    <rc><c>C </c><c>   2</c></rc>
    <rc><c>C </c><c>   2</c></rc>
    <rc><c>C </c><c>   2</c></rc>
    <rc><c>C </c><c>   2</c></rc>
    <rc><c>C </c><c>   2</c></rc>
    <rc><c>C </c><c>   2</c></rc>
    <rc><c>C </c><c>   2</c></rc>
    <rc><c>C </c><c>   2</c></rc>
    <rc><c>C </c><c>   2</c></rc>
    <rc><c>C </c><c>   2</c></rc>
    <rc><c>C </c><c>   2</c></rc>
    <rc><c>C </c><c>   2</c></rc>
    <rc><c>C </c><c>   2</c></rc>
    <rc><c>C </c><c>   2</c></rc>
    <rc><c>C </c><c>   2</c></rc>
    <rc><c>C </c><c>   2</c></rc>
    <rc><c>C </c><c>   2</c></rc>
    <rc><c>C </c><c>   2</c></rc>
    <rc><c>C </c><c>   2</c></rc>
    <rc><c>C </c><c>   2</c></rc>
    <rc><c>C </c><c>   2</c></rc>
    <rc><c>C </c><c>   2</c></rc>
    <rc><c>C </c><c>   2</c></rc>
    <rc><c>C </c><c>   2</c></rc>
    <rc><c>C </c><c>   2</c></rc>
    <rc><c>C </c><c>   2</c></rc>
    <rc><c>C </c><c>   2</c></rc>
    <rc><c>C </c><c>   2</c></rc>
    <rc><c>C </c><c>   2</c></rc>
    <rc><c>C </c><c>   2</c></rc>
    <rc><c>C </c><c>   2</c></rc>
    <rc><c>C </c><c>   2</c></rc>
    <rc><c>C </c><c>   2</c></rc>
    <rc><c>C </c><c>   2</c></rc>
    <rc><c>C </c><c>   2</c></rc>
    <rc><c>C </c><c>   2</c></rc>
    <rc><c>C </c><c>   2</c></rc>
    <rc><c>C </c><c>   2</c></rc>
    <rc><c>C </c><c>   2</c></rc>
    <rc><c>C </c><c>   2</c></rc>
    <rc><c>C </c><c>   2</c></rc>
    <rc><c>C </c><c>   2</c></rc>
    <rc><c>C </c><c>   2</c></rc>
    <rc><c>C </c><c>   2</c></rc>
    <rc><c>C </c><c>   2</c></rc>
    <rc><c>C </c><c>   2</c></rc>
    <rc><c>C </c><c>   2</c></rc>
    <rc><c>C </c><c>   2</c></rc>
    <rc><c>C </c><c>   2</c></rc>
    <rc><c>C </c><c>   2</c></rc>
    <rc><c>C </c><c>   2</c></rc>
    <rc><c>C </c><c>   2</c></rc>
    <rc><c>C </c><c>   2</c></rc>
    <rc><c>H </c><c>   3</c></rc>
    <rc><c>H </c><c>   3</c></rc>
    <rc><c>H </c><c>   3</c></rc>
    <rc><c>H </c><c>   3</c></rc>
    <rc><c>H </c><c>   3</c></rc>
    <rc><c>H </c><c>   3</c></rc>
    <rc><c>H </c><c>   3</c></rc>
    <rc><c>H </c><c>   3</c></rc>
    <rc><c>H </c><c>   3</c></rc>
    <rc><c>H </c><c>   3</c></rc>
    <rc><c>H </c><c>   3</c></rc>
    <rc><c>H </c><c>   3</c></rc>
    <rc><c>H </c><c>   3</c></rc>
    <rc><c>H </c><c>   3</c></rc>
    <rc><c>H </c><c>   3</c></rc>
    <rc><c>H </c><c>   3</c></rc>
    <rc><c>H </c><c>   3</c></rc>
    <rc><c>H </c><c>   3</c></rc>
    <rc><c>H </c><c>   3</c></rc>
    <rc><c>H </c><c>   3</c></rc>
    <rc><c>H </c><c>   3</c></rc>
    <rc><c>H </c><c>   3</c></rc>
    <rc><c>H </c><c>   3</c></rc>
    <rc><c>H </c><c>   3</c></rc>
    <rc><c>H </c><c>   3</c></rc>
    <rc><c>H </c><c>   3</c></rc>
    <rc><c>H </c><c>   3</c></rc>
    <rc><c>H </c><c>   3</c></rc>
    <rc><c>H </c><c>   3</c></rc>
    <rc><c>H </c><c>   3</c></rc>
   </set>
  </array>
  <array name="atomtypes" >
   <dimension dim="1">type</dimension>
   <field type="int">atomspertype</field>
   <field type="string">element</field>
   <field>mass</field>
   <field>valence</field>
   <field type="string">pseudopotential</field>
   <set>
    <rc><c>  12</c><c>N </c><c>     14.00100000</c><c>      5.00000000</c><c>  PAW_PBE N 08Apr2002                   </c></rc>
    <rc><c>  72</c><c>C </c><c>     12.01100000</c><c>      4.00000000</c><c>  PAW_PBE C 08Apr2002                   </c></rc>
    <rc><c>  30</c><c>H </c><c>      1.00000000</c><c>      1.00000000</c><c>  PAW_PBE H 15Jun2001                   </c></rc>
   </set>
  </array>
 </atominfo>
 <structure name="initialpos" >
  <crystal>
   <varray name="basis" >
    <v>      21.29595380       0.00075311       0.00000000 </v>
    <v>     -10.64727031      18.43648276       0.00000000 </v>
    <v>      -0.00000002      -0.00066028      20.00000000 </v>
   </varray>
   <i name="volume">   7852.61007329 </i>
   <varray name="rec_basis" >
    <v>       0.04695632       0.02711779       0.00000090 </v>
    <v>      -0.00000192       0.05423917       0.00000179 </v>
    <v>       0.00000000       0.00000000       0.05000000 </v>
   </varray>
  </crystal>
  <varray name="positions" >
   <v>       0.76316442       0.30027030       0.46071920 </v>
   <v>       0.70085752       0.23799277       0.46070203 </v>
   <v>       0.38770396       0.23784929       0.46048623 </v>
   <v>       0.38764981       0.30013901       0.46048504 </v>
   <v>       0.70067333       0.61303146       0.46022111 </v>
   <v>       0.76298785       0.61306479       0.46015670 </v>
   <v>       0.13836087       0.80045475       0.46197223 </v>
   <v>       0.20067342       0.86269933       0.46208611 </v>
   <v>       0.51262096       0.86250710       0.46174136 </v>
   <v>       0.51265335       0.80021246       0.46177348 </v>
   <v>       0.20056523       0.48815650       0.46193100 </v>
   <v>       0.13828441       0.48813494       0.46195997 </v>
   <v>       0.95058284       0.58420043       0.50126310 </v>
   <v>       0.01801059       0.65150438       0.50211554 </v>
   <v>       0.01705696       0.71786202       0.50283351 </v>
   <v>       0.95049621       0.71595084       0.50353480 </v>
   <v>       0.88397870       0.65123552       0.50200478 </v>
   <v>       0.88310750       0.58397708       0.50122259 </v>
   <v>       0.08385352       0.64920626       0.50532408 </v>
   <v>       0.81724013       0.51576654       0.50353895 </v>
   <v>       0.95061601       0.51671496       0.50136894 </v>
   <v>       0.01807416       0.51692619       0.50226866 </v>
   <v>       0.01716003       0.44963524       0.50311799 </v>
   <v>       0.95062885       0.38494145       0.50397025 </v>
   <v>       0.88409660       0.38306610       0.50246589 </v>
   <v>       0.88316611       0.44941970       0.50146642 </v>
   <v>       0.08388880       0.58513614       0.50538042 </v>
   <v>       0.81727367       0.45169828       0.50365604 </v>
   <v>       0.68974070       0.18392612       0.50322156 </v>
   <v>       0.74482854       0.19127475       0.54698117 </v>
   <v>       0.80970873       0.25613345       0.54701211 </v>
   <v>       0.81715864       0.31129047       0.50328426 </v>
   <v>       0.34478385       0.31120778       0.50314995 </v>
   <v>       0.29711318       0.25610078       0.54693607 </v>
   <v>       0.29719177       0.19126974       0.54694931 </v>
   <v>       0.34490239       0.18390215       0.50317307 </v>
   <v>       0.81699944       0.65598702       0.50277350 </v>
   <v>       0.80959995       0.70363015       0.54663061 </v>
   <v>       0.74474429       0.70361360       0.54668292 </v>
   <v>       0.68964110       0.65593601       0.50289171 </v>
   <v>       0.21150170       0.91695148       0.50424423 </v>
   <v>       0.15611731       0.90978177       0.54750713 </v>
   <v>       0.09117853       0.84495874       0.54734193 </v>
   <v>       0.08401049       0.78962883       0.50398448 </v>
   <v>       0.55620954       0.78949429       0.50385120 </v>
   <v>       0.60435646       0.84488325       0.54716379 </v>
   <v>       0.60433907       0.90975322       0.54710887 </v>
   <v>       0.55616107       0.91688483       0.50376104 </v>
   <v>       0.08408600       0.44481263       0.50418817 </v>
   <v>       0.09129559       0.39672130       0.54760056 </v>
   <v>       0.15616670       0.39673505       0.54758614 </v>
   <v>       0.21145494       0.44481568       0.50415710 </v>
   <v>       0.48434466       0.05045165       0.50130580 </v>
   <v>       0.48414263       0.98297334       0.50202008 </v>
   <v>       0.55139752       0.98386647       0.50271273 </v>
   <v>       0.61607664       0.05043610       0.50361811 </v>
   <v>       0.61795251       0.11699332       0.50230972 </v>
   <v>       0.55161796       0.11794009       0.50141603 </v>
   <v>       0.41598157       0.91711336       0.50512392 </v>
   <v>       0.54931029       0.18384304       0.50370857 </v>
   <v>       0.41686249       0.05044680       0.50138667 </v>
   <v>       0.34959817       0.98297041       0.50226923 </v>
   <v>       0.28325314       0.98388918       0.50318240 </v>
   <v>       0.28511843       0.05044002       0.50402863 </v>
   <v>       0.34978301       0.11698424       0.50244630 </v>
   <v>       0.41705323       0.11792400       0.50148581 </v>
   <v>       0.35191770       0.91711289       0.50527536 </v>
   <v>       0.48523699       0.18383518       0.50373232 </v>
   <v>       0.41679338       0.51663097       0.50136799 </v>
   <v>       0.34955480       0.51686127       0.50221265 </v>
   <v>       0.28317839       0.44959717       0.50308132 </v>
   <v>       0.28499837       0.38488638       0.50395812 </v>
   <v>       0.34964226       0.38299299       0.50240960 </v>
   <v>       0.41693468       0.44932395       0.50147157 </v>
   <v>       0.35193503       0.58506836       0.50526406 </v>
   <v>       0.48509658       0.45158226       0.50373488 </v>
   <v>       0.48430243       0.58410430       0.50130821 </v>
   <v>       0.48416170       0.65140212       0.50209726 </v>
   <v>       0.55144666       0.71775600       0.50283321 </v>
   <v>       0.61610356       0.71586252       0.50365247 </v>
   <v>       0.61790606       0.65114501       0.50217947 </v>
   <v>       0.55154614       0.58387476       0.50133953 </v>
   <v>       0.41602925       0.64912481       0.50521345 </v>
   <v>       0.54919824       0.51564869       0.50364938 </v>
   <v>       0.95049188       0.76723082       0.50213892 </v>
   <v>       0.95063807       0.33366554       0.50262266 </v>
   <v>       0.13525477       0.58583451       0.50682177 </v>
   <v>       0.13518493       0.69993737       0.50671761 </v>
   <v>       0.76592688       0.40095687       0.50437307 </v>
   <v>       0.76587287       0.51510557       0.50419854 </v>
   <v>       0.85324400       0.26575056       0.58159962 </v>
   <v>       0.73514510       0.14769238       0.58154931 </v>
   <v>       0.26335865       0.14771130       0.58155011 </v>
   <v>       0.26321194       0.26573634       0.58152515 </v>
   <v>       0.73509635       0.73748047       0.58132782 </v>
   <v>       0.85314862       0.73747500       0.58123394 </v>
   <v>       0.04737066       0.83555996       0.58149342 </v>
   <v>       0.16556787       0.95349741       0.58181195 </v>
   <v>       0.63863700       0.95353866       0.58133886 </v>
   <v>       0.63867025       0.83549562       0.58144894 </v>
   <v>       0.16562908       0.36248481       0.58188441 </v>
   <v>       0.04759165       0.36245040       0.58190282 </v>
   <v>       0.66735169       0.05045930       0.50217678 </v>
   <v>       0.23385012       0.05042858       0.50276239 </v>
   <v>       0.30122812       0.86573955       0.50667690 </v>
   <v>       0.41533081       0.86574855       0.50636434 </v>
   <v>       0.48587221       0.23520572       0.50446087 </v>
   <v>       0.60002063       0.23523220       0.50437080 </v>
   <v>       0.23370418       0.33362356       0.50265692 </v>
   <v>       0.66738342       0.76712731       0.50223279 </v>
   <v>       0.41542741       0.69985971       0.50652404 </v>
   <v>       0.30126880       0.58577664       0.50663987 </v>
   <v>       0.59988400       0.51494914       0.50433082 </v>
   <v>       0.48571445       0.40084193       0.50452713 </v>
  </varray>
 </structure>
 <calculation>
  <scstep>
   <time name="dav">  339.46  343.00</time>
   <time name="total">  339.58  343.14</time>
   <energy>
    <i name="alphaZ">     87.14294251 </i>
    <i name="ewald">  45224.89449896 </i>
    <i name="hartreedc"> -56914.57112230 </i>
    <i name="XCdc">   1310.87038451 </i>
    <i name="pawpsdc">  35920.14977706 </i>
    <i name="pawaedc"> -35986.24209929 </i>
    <i name="eentropy">     -0.00000000 </i>
    <i name="bandstr">  -4636.06177983 </i>
    <i name="atom">  14143.69745030 </i>
    <i name="e_fr_energy">   -850.11994808 </i>
    <i name="e_wo_entrp">   -850.11994808 </i>
    <i name="e_0_energy">   -850.11994808 </i>
   </energy>
  </scstep>
  <scstep>
   <time name="dav">  371.98  375.79</time>
   <time name="total">  371.99  375.79</time>
   <energy>
    <i name="e_fr_energy">   -851.05862370 </i>
    <i name="e_wo_entrp">   -851.05862370 </i>
    <i name="e_0_energy">   -851.05862370 </i>
   </energy>
  </scstep>
  <scstep>
   <time name="dav">  419.64  423.91</time>
   <time name="total">  419.65  423.91</time>
   <energy>
    <i name="e_fr_energy">   -851.08713714 </i>
    <i name="e_wo_entrp">   -851.08713714 </i>
    <i name="e_0_energy">   -851.08713714 </i>
   </energy>
  </scstep>
  <scstep>
   <time name="dav">  373.51  377.30</time>
   <time name="total">  373.52  377.30</time>
   <energy>
    <i name="e_fr_energy">   -851.08772445 </i>
    <i name="e_wo_entrp">   -851.08772445 </i>
    <i name="e_0_energy">   -851.08772445 </i>
   </energy>
  </scstep>
  <scstep>
   <time name="dav">  382.73  386.57</time>
   <time name="total">  382.73  386.57</time>
   <energy>
    <i name="e_fr_energy">   -851.08774918 </i>
    <i name="e_wo_entrp">   -851.08774918 </i>
    <i name="e_0_energy">   -851.08774918 </i>
   </energy>
  </scstep>
  <scstep>
   <time name="dav">  291.46  294.39</time>
   <time name="total">  291.46  294.40</time>
   <energy>
    <i name="alphaZ">     87.14294251 </i>
    <i name="ewald">  45224.89449896 </i>
    <i name="hartreedc"> -56914.57112230 </i>
    <i name="XCdc">   1310.87038451 </i>
    <i name="pawpsdc">  35920.14977706 </i>
    <i name="pawaedc"> -35986.24209929 </i>
    <i name="eentropy">     -0.00000000 </i>
    <i name="bandstr">  -4637.02958156 </i>
    <i name="atom">  14143.69745030 </i>
    <i name="e_fr_energy">   -851.08774980 </i>
    <i name="e_wo_entrp">   -851.08774980 </i>
    <i name="e_0_energy">   -851.08774980 </i>
   </energy>
  </scstep>
  <structure>
   <crystal>
    <varray name="basis" >
     <v>      21.29595380       0.00075311       0.00000000 </v>
     <v>     -10.64727031      18.43648276       0.00000000 </v>
     <v>      -0.00000002      -0.00066028      20.00000000 </v>
    </varray>
    <i name="volume">   7852.61007329 </i>
    <varray name="rec_basis" >
     <v>       0.04695632       0.02711779       0.00000090 </v>
     <v>      -0.00000192       0.05423917       0.00000179 </v>
     <v>       0.00000000       0.00000000       0.05000000 </v>
    </varray>
   </crystal>
   <varray name="positions" >
    <v>       0.76316442       0.30027030       0.46071920 </v>
    <v>       0.70085752       0.23799277       0.46070203 </v>
    <v>       0.38770396       0.23784929       0.46048623 </v>
    <v>       0.38764981       0.30013901       0.46048504 </v>
    <v>       0.70067333       0.61303146       0.46022111 </v>
    <v>       0.76298785       0.61306479       0.46015670 </v>
    <v>       0.13836087       0.80045475       0.46197223 </v>
    <v>       0.20067342       0.86269933       0.46208611 </v>
    <v>       0.51262096       0.86250710       0.46174136 </v>
    <v>       0.51265335       0.80021246       0.46177348 </v>
    <v>       0.20056523       0.48815650       0.46193100 </v>
    <v>       0.13828441       0.48813494       0.46195997 </v>
    <v>       0.95058284       0.58420043       0.50126310 </v>
    <v>       0.01801059       0.65150438       0.50211554 </v>
    <v>       0.01705696       0.71786202       0.50283351 </v>
    <v>       0.95049621       0.71595084       0.50353480 </v>
    <v>       0.88397870       0.65123552       0.50200478 </v>
    <v>       0.88310750       0.58397708       0.50122259 </v>
    <v>       0.08385352       0.64920626       0.50532408 </v>
    <v>       0.81724013       0.51576654       0.50353895 </v>
    <v>       0.95061601       0.51671496       0.50136894 </v>
    <v>       0.01807416       0.51692619       0.50226866 </v>
    <v>       0.01716003       0.44963524       0.50311799 </v>
    <v>       0.95062885       0.38494145       0.50397025 </v>
    <v>       0.88409660       0.38306610       0.50246589 </v>
    <v>       0.88316611       0.44941970       0.50146642 </v>
    <v>       0.08388880       0.58513614       0.50538042 </v>
    <v>       0.81727367       0.45169828       0.50365604 </v>
    <v>       0.68974070       0.18392612       0.50322156 </v>
    <v>       0.74482854       0.19127475       0.54698117 </v>
    <v>       0.80970873       0.25613345       0.54701211 </v>
    <v>       0.81715864       0.31129047       0.50328426 </v>
    <v>       0.34478385       0.31120778       0.50314995 </v>
    <v>       0.29711318       0.25610078       0.54693607 </v>
    <v>       0.29719177       0.19126974       0.54694931 </v>
    <v>       0.34490239       0.18390215       0.50317307 </v>
    <v>       0.81699944       0.65598702       0.50277350 </v>
    <v>       0.80959995       0.70363015       0.54663061 </v>
    <v>       0.74474429       0.70361360       0.54668292 </v>
    <v>       0.68964110       0.65593601       0.50289171 </v>
    <v>       0.21150170       0.91695148       0.50424423 </v>
    <v>       0.15611731       0.90978177       0.54750713 </v>
    <v>       0.09117853       0.84495874       0.54734193 </v>
    <v>       0.08401049       0.78962883       0.50398448 </v>
    <v>       0.55620954       0.78949429       0.50385120 </v>
    <v>       0.60435646       0.84488325       0.54716379 </v>
    <v>       0.60433907       0.90975322       0.54710887 </v>
    <v>       0.55616107       0.91688483       0.50376104 </v>
    <v>       0.08408600       0.44481263       0.50418817 </v>
    <v>       0.09129559       0.39672130       0.54760056 </v>
    <v>       0.15616670       0.39673505       0.54758614 </v>
    <v>       0.21145494       0.44481568       0.50415710 </v>
    <v>       0.48434466       0.05045165       0.50130580 </v>
    <v>       0.48414263       0.98297334       0.50202008 </v>
    <v>       0.55139752       0.98386647       0.50271273 </v>
    <v>       0.61607664       0.05043610       0.50361811 </v>
    <v>       0.61795251       0.11699332       0.50230972 </v>
    <v>       0.55161796       0.11794009       0.50141603 </v>
    <v>       0.41598157       0.91711336       0.50512392 </v>
    <v>       0.54931029       0.18384304       0.50370857 </v>
    <v>       0.41686249       0.05044680       0.50138667 </v>
    <v>       0.34959817       0.98297041       0.50226923 </v>
    <v>       0.28325314       0.98388918       0.50318240 </v>
    <v>       0.28511843       0.05044002       0.50402863 </v>
    <v>       0.34978301       0.11698424       0.50244630 </v>
    <v>       0.41705323       0.11792400       0.50148581 </v>
    <v>       0.35191770       0.91711289       0.50527536 </v>
    <v>       0.48523699       0.18383518       0.50373232 </v>
    <v>       0.41679338       0.51663097       0.50136799 </v>
    <v>       0.34955480       0.51686127       0.50221265 </v>
    <v>       0.28317839       0.44959717       0.50308132 </v>
    <v>       0.28499837       0.38488638       0.50395812 </v>
    <v>       0.34964226       0.38299299       0.50240960 </v>
    <v>       0.41693468       0.44932395       0.50147157 </v>
    <v>       0.35193503       0.58506836       0.50526406 </v>
    <v>       0.48509658       0.45158226       0.50373488 </v>
    <v>       0.48430243       0.58410430       0.50130821 </v>
    <v>       0.48416170       0.65140212       0.50209726 </v>
    <v>       0.55144666       0.71775600       0.50283321 </v>
    <v>       0.61610356       0.71586252       0.50365247 </v>
    <v>       0.61790606       0.65114501       0.50217947 </v>
    <v>       0.55154614       0.58387476       0.50133953 </v>
    <v>       0.41602925       0.64912481       0.50521345 </v>
    <v>       0.54919824       0.51564869       0.50364938 </v>
    <v>       0.95049188       0.76723082       0.50213892 </v>
    <v>       0.95063807       0.33366554       0.50262266 </v>
    <v>       0.13525477       0.58583451       0.50682177 </v>
    <v>       0.13518493       0.69993737       0.50671761 </v>
    <v>       0.76592688       0.40095687       0.50437307 </v>
    <v>       0.76587287       0.51510557       0.50419854 </v>
    <v>       0.85324400       0.26575056       0.58159962 </v>
    <v>       0.73514510       0.14769238       0.58154931 </v>
    <v>       0.26335865       0.14771130       0.58155011 </v>
    <v>       0.26321194       0.26573634       0.58152515 </v>
    <v>       0.73509635       0.73748047       0.58132782 </v>
    <v>       0.85314862       0.73747500       0.58123394 </v>
    <v>       0.04737066       0.83555996       0.58149342 </v>
    <v>       0.16556787       0.95349741       0.58181195 </v>
    <v>       0.63863700       0.95353866       0.58133886 </v>
    <v>       0.63867025       0.83549562       0.58144894 </v>
    <v>       0.16562908       0.36248481       0.58188441 </v>
    <v>       0.04759165       0.36245040       0.58190282 </v>
    <v>       0.66735169       0.05045930       0.50217678 </v>
    <v>       0.23385012       0.05042858       0.50276239 </v>
    <v>       0.30122812       0.86573955       0.50667690 </v>
    <v>       0.41533081       0.86574855       0.50636434 </v>
    <v>       0.48587221       0.23520572       0.50446087 </v>
    <v>       0.60002063       0.23523220       0.50437080 </v>
    <v>       0.23370418       0.33362356       0.50265692 </v>
    <v>       0.66738342       0.76712731       0.50223279 </v>
    <v>       0.41542741       0.69985971       0.50652404 </v>
    <v>       0.30126880       0.58577664       0.50663987 </v>
    <v>       0.59988400       0.51494914       0.50433082 </v>
    <v>       0.48571445       0.40084193       0.50452713 </v>
   </varray>
  </structure>
  <varray name="forces" >
   <v>      -0.02463442      -0.02057350      -0.00883356 </v>
   <v>       0.00239361       0.03258593      -0.01027866 </v>
   <v>      -0.00852233       0.01264959      -0.00153447 </v>
   <v>       0.00753203      -0.00708570      -0.00510045 </v>
   <v>       0.02257477      -0.01646241      -0.00901662 </v>
   <v>      -0.01718637      -0.00976318      -0.00210978 </v>
   <v>       0.02588480       0.01951940      -0.01024899 </v>
   <v>      -0.00918401      -0.02616643      -0.00891705 </v>
   <v>       0.00132368      -0.00977211      -0.00181254 </v>
   <v>      -0.01000177       0.00682458      -0.00311870 </v>
   <v>      -0.02106899       0.00919520      -0.00148927 </v>
   <v>       0.02872151       0.01609202      -0.00998647 </v>
   <v>      -0.00166601       0.00053712      -0.00189526 </v>
   <v>       0.02496779      -0.01262245      -0.00544775 </v>
   <v>       0.00366100       0.03175871       0.00283592 </v>
   <v>      -0.00448277       0.00358843       0.01738599 </v>
   <v>      -0.02229647       0.01590137       0.00458828 </v>
   <v>       0.00031098      -0.02966938      -0.00439495 </v>
   <v>      -0.02873021       0.01887494      -0.00327839 </v>
   <v>      -0.00037397       0.03855472      -0.00448140 </v>
   <v>      -0.00349770       0.00190117      -0.00230027 </v>
   <v>       0.00353395       0.02859082      -0.00434207 </v>
   <v>       0.02299683      -0.01345575       0.00313872 </v>
   <v>       0.00164985      -0.00277820       0.01843881 </v>
   <v>      -0.00230124      -0.03573219       0.00467764 </v>
   <v>      -0.02708811       0.01396709      -0.00547617 </v>
   <v>       0.00100988      -0.03894793      -0.00449962 </v>
   <v>       0.02996382      -0.01955913      -0.00301485 </v>
   <v>      -0.01507869      -0.03904432       0.00437196 </v>
   <v>       0.01594703       0.00463157       0.00218177 </v>
   <v>       0.00462063      -0.01802940       0.00437347 </v>
   <v>       0.02462145       0.03419635      -0.00104214 </v>
   <v>      -0.00813562       0.00782816       0.00032902 </v>
   <v>       0.00603666      -0.00808591       0.00139308 </v>
   <v>      -0.00498205       0.00627117       0.00245253 </v>
   <v>       0.00233094      -0.01335430       0.00093849 </v>
   <v>       0.03147531       0.00178967      -0.00282774 </v>
   <v>      -0.01385343       0.00653360      -0.00318663 </v>
   <v>       0.01037166       0.01114742       0.00207931 </v>
   <v>      -0.03475978       0.00746247       0.00578311 </v>
   <v>       0.01506402       0.03872876       0.00065160 </v>
   <v>      -0.01637831      -0.00972182      -0.00064243 </v>
   <v>      -0.00433833       0.02101369       0.00396931 </v>
   <v>      -0.02521777      -0.03390987       0.00223591 </v>
   <v>       0.00683238      -0.00917186      -0.00042429 </v>
   <v>       0.00211736       0.00718594       0.00052332 </v>
   <v>       0.00440512      -0.00122617       0.00022420 </v>
   <v>      -0.00320469       0.00665179      -0.00128450 </v>
   <v>      -0.03616838      -0.00647650       0.00192478 </v>
   <v>       0.01603603      -0.00775016       0.00093847 </v>
   <v>      -0.01449597      -0.00644483      -0.00228714 </v>
   <v>       0.02973623      -0.00254864       0.00124636 </v>
   <v>       0.00082996       0.00361899      -0.00123028 </v>
   <v>      -0.01722620      -0.01309927      -0.00316173 </v>
   <v>       0.01864811       0.00853509       0.00336131 </v>
   <v>       0.00259463      -0.01631427       0.01354545 </v>
   <v>       0.02135016       0.02581522       0.00289420 </v>
   <v>      -0.01662891       0.00989705      -0.00487349 </v>
   <v>       0.02435328       0.01264002      -0.00394301 </v>
   <v>       0.02828595      -0.01295543      -0.00197259 </v>
   <v>      -0.00018659       0.00008366      -0.00013369 </v>
   <v>       0.01494763      -0.01002525      -0.00608684 </v>
   <v>      -0.02118938      -0.02439449       0.00336971 </v>
   <v>       0.00187655       0.01249939       0.01397181 </v>
   <v>      -0.01875946      -0.00153869       0.00233888 </v>
   <v>       0.01783318       0.00983280      -0.00153977 </v>
   <v>      -0.02283484       0.01082212      -0.00172457 </v>
   <v>      -0.02559170      -0.01502975      -0.00513191 </v>
   <v>       0.00106472      -0.00096109      -0.00077547 </v>
   <v>      -0.00323578       0.01825582      -0.00449682 </v>
   <v>      -0.02242873      -0.00589420       0.00184857 </v>
   <v>       0.00573639      -0.00601130       0.00960736 </v>
   <v>      -0.00756264      -0.01449097       0.00269640 </v>
   <v>       0.01589132       0.01177667      -0.00224596 </v>
   <v>      -0.00277067      -0.02640333      -0.00172909 </v>
   <v>      -0.01772542      -0.01015269      -0.00409703 </v>
   <v>      -0.00082829      -0.00060428      -0.00131979 </v>
   <v>      -0.01607958      -0.00890599      -0.00314395 </v>
   <v>       0.01106754       0.01225804       0.00157535 </v>
   <v>      -0.01127780       0.00576709       0.00914292 </v>
   <v>       0.02499263       0.00463252      -0.00008474 </v>
   <v>       0.00215950      -0.01890483      -0.00542269 </v>
   <v>       0.01729404       0.01476300      -0.00415425 </v>
   <v>      -0.00124207       0.02539527      -0.00189103 </v>
   <v>      -0.00033364      -0.00185418       0.00038305 </v>
   <v>       0.00014720       0.00109572       0.00218023 </v>
   <v>       0.00259840      -0.00228976       0.00018572 </v>
   <v>       0.00088173       0.00001682       0.00107345 </v>
   <v>      -0.00026821      -0.00210425       0.00230338 </v>
   <v>      -0.00181842       0.00059927      -0.00089394 </v>
   <v>      -0.00336767      -0.00151388       0.00098967 </v>
   <v>      -0.00023130       0.00289664       0.00040903 </v>
   <v>      -0.00070318      -0.00059834       0.00451945 </v>
   <v>       0.00167836       0.00051760       0.00168249 </v>
   <v>       0.00193462      -0.00541527      -0.00178029 </v>
   <v>       0.00028989       0.00047644       0.00332337 </v>
   <v>       0.00411837      -0.00075470       0.00261512 </v>
   <v>      -0.00128214      -0.00231701       0.00217701 </v>
   <v>       0.00008586      -0.00115053       0.00117015 </v>
   <v>      -0.00160279      -0.00048144      -0.00030193 </v>
   <v>       0.00152463       0.00102340       0.00432387 </v>
   <v>       0.00039407       0.00310215       0.00315025 </v>
   <v>       0.00085507      -0.00158658       0.00313112 </v>
   <v>      -0.00237214       0.00066781      -0.00106226 </v>
   <v>      -0.00221773       0.00095910       0.00070861 </v>
   <v>       0.00095805       0.00064348       0.00050422 </v>
   <v>       0.00067681      -0.00052870      -0.00231366 </v>
   <v>       0.00322896      -0.00076122       0.00185353 </v>
   <v>       0.00156348       0.00025486       0.00070763 </v>
   <v>       0.00043624       0.00144069       0.00157212 </v>
   <v>      -0.00067456      -0.00008515       0.00064524 </v>
   <v>      -0.00171162      -0.00147629       0.00077774 </v>
   <v>       0.00347247       0.00275261       0.00025377 </v>
   <v>      -0.00009024      -0.00006573      -0.00289128 </v>
  </varray>
  <varray name="stress" >
   <v>      -0.03725807      -0.03755971      -0.00870486 </v>
   <v>      -0.03755971      -0.02025974      -0.01444097 </v>
   <v>      -0.00870485      -0.01444097      -0.27381388 </v>
  </varray>
  <energy>
   <i name="e_fr_energy">   -853.93556931 </i>
   <i name="e_wo_entrp">   -853.93556931 </i>
   <i name="e_0_energy">     -0.00000000 </i>
  </energy>
  <time name="totalsc"> 2554.85 2582.11</time>
  <eigenvalues>
   <array>
    <dimension dim="1">band</dimension>
    <dimension dim="2">kpoint</dimension>
    <dimension dim="3">spin</dimension>
    <field>eigene</field>
    <field>occ</field>
    <set>
     <set comment="spin 1">
      <set comment="kpoint 1">
       <r>  -24.9210    1.0000 </r>
       <r>  -24.9196    1.0000 </r>
       <r>  -24.9172    1.0000 </r>
       <r>  -24.9139    1.0000 </r>
       <r>  -24.9128    1.0000 </r>
       <r>  -24.9111    1.0000 </r>
       <r>  -21.8845    1.0000 </r>
       <r>  -21.8838    1.0000 </r>
       <r>  -21.7812    1.0000 </r>
       <r>  -21.4114    1.0000 </r>
       <r>  -21.2148    1.0000 </r>
       <r>  -21.2139    1.0000 </r>
       <r>  -20.7082    1.0000 </r>
       <r>  -20.6513    1.0000 </r>
       <r>  -20.6508    1.0000 </r>
       <r>  -20.5594    1.0000 </r>
       <r>  -20.5585    1.0000 </r>
       <r>  -20.3141    1.0000 </r>
       <r>  -20.2854    1.0000 </r>
       <r>  -20.2067    1.0000 </r>
       <r>  -20.2062    1.0000 </r>
       <r>  -19.9113    1.0000 </r>
       <r>  -19.8838    1.0000 </r>
       <r>  -19.8836    1.0000 </r>
       <r>  -19.6690    1.0000 </r>
       <r>  -19.6688    1.0000 </r>
       <r>  -19.6104    1.0000 </r>
       <r>  -19.2889    1.0000 </r>
       <r>  -19.1712    1.0000 </r>
       <r>  -19.1710    1.0000 </r>
       <r>  -18.5628    1.0000 </r>
       <r>  -18.5625    1.0000 </r>
       <r>  -18.0396    1.0000 </r>
       <r>  -17.9054    1.0000 </r>
       <r>  -17.8647    1.0000 </r>
       <r>  -17.8322    1.0000 </r>
       <r>  -17.8318    1.0000 </r>
       <r>  -17.8204    1.0000 </r>
       <r>  -17.7732    1.0000 </r>
       <r>  -17.7725    1.0000 </r>
       <r>  -17.2818    1.0000 </r>
       <r>  -17.2809    1.0000 </r>
       <r>  -16.3774    1.0000 </r>
       <r>  -16.3766    1.0000 </r>
       <r>  -16.3401    1.0000 </r>
       <r>  -15.9724    1.0000 </r>
       <r>  -15.9623    1.0000 </r>
       <r>  -15.9613    1.0000 </r>
       <r>  -15.8484    1.0000 </r>
       <r>  -15.8476    1.0000 </r>
       <r>  -15.7678    1.0000 </r>
       <r>  -15.7671    1.0000 </r>
       <r>  -15.6780    1.0000 </r>
       <r>  -15.3754    1.0000 </r>
       <r>  -15.0968    1.0000 </r>
       <r>  -15.0954    1.0000 </r>
       <r>  -15.0613    1.0000 </r>
       <r>  -14.7060    1.0000 </r>
       <r>  -14.6551    1.0000 </r>
       <r>  -14.5277    1.0000 </r>
       <r>  -14.5272    1.0000 </r>
       <r>  -14.4441    1.0000 </r>
       <r>  -14.4435    1.0000 </r>
       <r>  -14.2715    1.0000 </r>
       <r>  -14.2714    1.0000 </r>
       <r>  -14.2089    1.0000 </r>
       <r>  -13.1074    1.0000 </r>
       <r>  -13.0327    1.0000 </r>
       <r>  -13.0188    1.0000 </r>
       <r>  -13.0183    1.0000 </r>
       <r>  -12.8494    1.0000 </r>
       <r>  -12.7968    1.0000 </r>
       <r>  -12.7966    1.0000 </r>
       <r>  -12.5731    1.0000 </r>
       <r>  -12.5727    1.0000 </r>
       <r>  -12.3521    1.0000 </r>
       <r>  -12.3519    1.0000 </r>
       <r>  -12.2459    1.0000 </r>
       <r>  -12.2419    1.0000 </r>
       <r>  -12.2417    1.0000 </r>
       <r>  -12.2206    1.0000 </r>
       <r>  -12.2203    1.0000 </r>
       <r>  -12.0208    1.0000 </r>
       <r>  -12.0143    1.0000 </r>
       <r>  -11.9017    1.0000 </r>
       <r>  -11.9015    1.0000 </r>
       <r>  -11.6921    1.0000 </r>
       <r>  -11.6085    1.0000 </r>
       <r>  -11.6077    1.0000 </r>
       <r>  -11.4778    1.0000 </r>
       <r>  -11.2428    1.0000 </r>
       <r>  -10.8658    1.0000 </r>
       <r>  -10.8655    1.0000 </r>
       <r>  -10.7060    1.0000 </r>
       <r>  -10.7052    1.0000 </r>
       <r>  -10.6652    1.0000 </r>
       <r>  -10.6452    1.0000 </r>
       <r>  -10.6443    1.0000 </r>
       <r>  -10.5155    1.0000 </r>
       <r>  -10.5148    1.0000 </r>
       <r>  -10.4766    1.0000 </r>
       <r>  -10.3768    1.0000 </r>
       <r>  -10.2308    1.0000 </r>
       <r>  -10.2176    1.0000 </r>
       <r>  -10.2162    1.0000 </r>
       <r>  -10.1552    1.0000 </r>
       <r>  -10.0804    1.0000 </r>
       <r>  -10.0145    1.0000 </r>
       <r>   -9.9565    1.0000 </r>
       <r>   -9.9564    1.0000 </r>
       <r>   -9.9255    1.0000 </r>
       <r>   -9.9249    1.0000 </r>
       <r>   -9.8947    1.0000 </r>
       <r>   -9.8939    1.0000 </r>
       <r>   -9.6777    1.0000 </r>
       <r>   -9.6768    1.0000 </r>
       <r>   -9.6337    1.0000 </r>
       <r>   -9.5954    1.0000 </r>
       <r>   -9.5946    1.0000 </r>
       <r>   -9.5201    1.0000 </r>
       <r>   -9.4985    1.0000 </r>
       <r>   -9.4982    1.0000 </r>
       <r>   -9.2928    1.0000 </r>
       <r>   -9.2919    1.0000 </r>
       <r>   -9.2529    1.0000 </r>
       <r>   -9.2028    1.0000 </r>
       <r>   -9.0878    1.0000 </r>
       <r>   -9.0715    1.0000 </r>
       <r>   -9.0663    1.0000 </r>
       <r>   -9.0658    1.0000 </r>
       <r>   -8.9558    1.0000 </r>
       <r>   -8.9554    1.0000 </r>
       <r>   -8.8977    1.0000 </r>
       <r>   -8.7765    1.0000 </r>
       <r>   -8.7758    1.0000 </r>
       <r>   -8.7367    1.0000 </r>
       <r>   -8.5228    1.0000 </r>
       <r>   -8.5220    1.0000 </r>
       <r>   -8.3969    1.0000 </r>
       <r>   -8.3964    1.0000 </r>
       <r>   -8.3609    1.0000 </r>
       <r>   -7.9808    1.0000 </r>
       <r>   -7.9805    1.0000 </r>
       <r>   -7.9153    1.0000 </r>
       <r>   -7.8668    1.0000 </r>
       <r>   -7.7931    1.0000 </r>
       <r>   -7.7914    1.0000 </r>
       <r>   -7.6399    1.0000 </r>
       <r>   -7.6388    1.0000 </r>
       <r>   -7.5087    1.0000 </r>
       <r>   -7.4178    1.0000 </r>
       <r>   -7.4177    1.0000 </r>
       <r>   -7.2669    1.0000 </r>
       <r>   -7.2052    1.0000 </r>
       <r>   -7.2048    1.0000 </r>
       <r>   -7.1919    1.0000 </r>
       <r>   -7.1861    1.0000 </r>
       <r>   -7.1854    1.0000 </r>
       <r>   -7.0470    1.0000 </r>
       <r>   -6.9796    1.0000 </r>
       <r>   -6.9054    1.0000 </r>
       <r>   -6.9050    1.0000 </r>
       <r>   -6.7887    1.0000 </r>
       <r>   -6.7869    1.0000 </r>
       <r>   -6.7575    1.0000 </r>
       <r>   -6.6714    1.0000 </r>
       <r>   -6.6708    1.0000 </r>
       <r>   -6.6648    1.0000 </r>
       <r>   -6.6574    1.0000 </r>
       <r>   -6.3383    1.0000 </r>
       <r>   -6.3374    1.0000 </r>
       <r>   -6.0098    1.0000 </r>
       <r>   -6.0096    1.0000 </r>
       <r>   -5.7543    1.0000 </r>
       <r>   -5.7189    1.0000 </r>
       <r>   -5.7184    1.0000 </r>
       <r>   -5.7136    1.0000 </r>
       <r>   -5.5334    1.0000 </r>
       <r>   -5.5331    1.0000 </r>
       <r>   -5.4586    1.0000 </r>
       <r>   -4.7814    1.0000 </r>
       <r>   -4.7248    1.0000 </r>
       <r>   -4.7229    1.0000 </r>
       <r>   -4.6370    1.0000 </r>
       <r>   -4.5800    1.0000 </r>
       <r>   -4.5777    1.0000 </r>
       <r>   -4.5630    1.0000 </r>
       <r>   -4.2451    1.0000 </r>
       <r>   -4.2445    1.0000 </r>
       <r>   -2.6126    0.0000 </r>
       <r>   -2.6116    0.0000 </r>
       <r>   -2.0486    0.0000 </r>
       <r>   -1.9454    0.0000 </r>
       <r>   -1.9449    0.0000 </r>
       <r>   -1.9394    0.0000 </r>
       <r>   -1.9384    0.0000 </r>
       <r>   -1.9377    0.0000 </r>
       <r>   -1.8742    0.0000 </r>
       <r>   -1.8010    0.0000 </r>
       <r>   -1.7492    0.0000 </r>
       <r>   -1.7486    0.0000 </r>
       <r>   -1.5884    0.0000 </r>
       <r>   -1.3346    0.0000 </r>
       <r>   -1.3344    0.0000 </r>
       <r>   -1.0144    0.0000 </r>
       <r>   -0.6615    0.0000 </r>
       <r>   -0.6597    0.0000 </r>
       <r>   -0.6459    0.0000 </r>
       <r>   -0.5854    0.0000 </r>
       <r>   -0.5853    0.0000 </r>
       <r>   -0.4282    0.0000 </r>
       <r>   -0.2037    0.0000 </r>
       <r>   -0.2035    0.0000 </r>
       <r>   -0.1664    0.0000 </r>
       <r>   -0.1661    0.0000 </r>
       <r>    0.2217    0.0000 </r>
       <r>    0.2221    0.0000 </r>
       <r>    0.2553    0.0000 </r>
       <r>    0.3022    0.0000 </r>
       <r>    0.4062    0.0000 </r>
       <r>    0.5048    0.0000 </r>
       <r>    0.5226    0.0000 </r>
       <r>    0.5690    0.0000 </r>
       <r>    0.5698    0.0000 </r>
       <r>    0.8545    0.0000 </r>
       <r>    0.8851    0.0000 </r>
       <r>    0.9067    0.0000 </r>
       <r>    0.9069    0.0000 </r>
       <r>    0.9095    0.0000 </r>
       <r>    0.9104    0.0000 </r>
       <r>    1.0395    0.0000 </r>
       <r>    1.1379    0.0000 </r>
       <r>    1.1389    0.0000 </r>
       <r>    1.1448    0.0000 </r>
       <r>    1.1717    0.0000 </r>
       <r>    1.1723    0.0000 </r>
       <r>    1.1726    0.0000 </r>
       <r>    1.2667    0.0000 </r>
       <r>    1.2670    0.0000 </r>
       <r>    1.4202    0.0000 </r>
       <r>    1.4504    0.0000 </r>
       <r>    1.4526    0.0000 </r>
       <r>    1.4921    0.0000 </r>
       <r>    1.5300    0.0000 </r>
       <r>    1.5435    0.0000 </r>
       <r>    1.5499    0.0000 </r>
       <r>    1.5844    0.0000 </r>
       <r>    1.6154    0.0000 </r>
       <r>    1.6168    0.0000 </r>
       <r>    1.6401    0.0000 </r>
       <r>    1.6411    0.0000 </r>
       <r>    1.6760    0.0000 </r>
       <r>    1.7655    0.0000 </r>
       <r>    1.8238    0.0000 </r>
       <r>    1.8242    0.0000 </r>
       <r>    1.8447    0.0000 </r>
      </set>
      <set comment="kpoint 2">
       <r>  -24.9210    1.0000 </r>
       <r>  -24.9196    1.0000 </r>
       <r>  -24.9172    1.0000 </r>
       <r>  -24.9139    1.0000 </r>
       <r>  -24.9128    1.0000 </r>
       <r>  -24.9111    1.0000 </r>
       <r>  -21.8845    1.0000 </r>
       <r>  -21.8838    1.0000 </r>
       <r>  -21.7814    1.0000 </r>
       <r>  -21.4111    1.0000 </r>
       <r>  -21.2149    1.0000 </r>
       <r>  -21.2139    1.0000 </r>
       <r>  -20.7100    1.0000 </r>
       <r>  -20.6518    1.0000 </r>
       <r>  -20.6495    1.0000 </r>
       <r>  -20.5587    1.0000 </r>
       <r>  -20.5578    1.0000 </r>
       <r>  -20.3139    1.0000 </r>
       <r>  -20.2854    1.0000 </r>
       <r>  -20.2070    1.0000 </r>
       <r>  -20.2062    1.0000 </r>
       <r>  -19.9111    1.0000 </r>
       <r>  -19.8836    1.0000 </r>
       <r>  -19.8835    1.0000 </r>
       <r>  -19.6695    1.0000 </r>
       <r>  -19.6692    1.0000 </r>
       <r>  -19.6111    1.0000 </r>
       <r>  -19.2885    1.0000 </r>
       <r>  -19.1708    1.0000 </r>
       <r>  -19.1703    1.0000 </r>
       <r>  -18.5633    1.0000 </r>
       <r>  -18.5621    1.0000 </r>
       <r>  -18.0409    1.0000 </r>
       <r>  -17.9054    1.0000 </r>
       <r>  -17.8646    1.0000 </r>
       <r>  -17.8322    1.0000 </r>
       <r>  -17.8318    1.0000 </r>
       <r>  -17.8222    1.0000 </r>
       <r>  -17.7730    1.0000 </r>
       <r>  -17.7700    1.0000 </r>
       <r>  -17.2814    1.0000 </r>
       <r>  -17.2811    1.0000 </r>
       <r>  -16.3775    1.0000 </r>
       <r>  -16.3764    1.0000 </r>
       <r>  -16.3404    1.0000 </r>
       <r>  -15.9817    1.0000 </r>
       <r>  -15.9619    1.0000 </r>
       <r>  -15.9522    1.0000 </r>
       <r>  -15.8491    1.0000 </r>
       <r>  -15.8480    1.0000 </r>
       <r>  -15.7673    1.0000 </r>
       <r>  -15.7666    1.0000 </r>
       <r>  -15.6781    1.0000 </r>
       <r>  -15.3761    1.0000 </r>
       <r>  -15.0963    1.0000 </r>
       <r>  -15.0949    1.0000 </r>
       <r>  -15.0613    1.0000 </r>
       <r>  -14.7063    1.0000 </r>
       <r>  -14.6557    1.0000 </r>
       <r>  -14.5273    1.0000 </r>
       <r>  -14.5271    1.0000 </r>
       <r>  -14.4441    1.0000 </r>
       <r>  -14.4439    1.0000 </r>
       <r>  -14.2715    1.0000 </r>
       <r>  -14.2712    1.0000 </r>
       <r>  -14.2088    1.0000 </r>
       <r>  -13.1072    1.0000 </r>
       <r>  -13.0327    1.0000 </r>
       <r>  -13.0188    1.0000 </r>
       <r>  -13.0182    1.0000 </r>
       <r>  -12.8494    1.0000 </r>
       <r>  -12.7969    1.0000 </r>
       <r>  -12.7968    1.0000 </r>
       <r>  -12.5729    1.0000 </r>
       <r>  -12.5725    1.0000 </r>
       <r>  -12.3527    1.0000 </r>
       <r>  -12.3523    1.0000 </r>
       <r>  -12.2479    1.0000 </r>
       <r>  -12.2431    1.0000 </r>
       <r>  -12.2426    1.0000 </r>
       <r>  -12.2193    1.0000 </r>
       <r>  -12.2178    1.0000 </r>
       <r>  -12.0199    1.0000 </r>
       <r>  -12.0138    1.0000 </r>
       <r>  -11.9017    1.0000 </r>
       <r>  -11.9014    1.0000 </r>
       <r>  -11.6920    1.0000 </r>
       <r>  -11.6086    1.0000 </r>
       <r>  -11.6078    1.0000 </r>
       <r>  -11.4789    1.0000 </r>
       <r>  -11.2424    1.0000 </r>
       <r>  -10.8662    1.0000 </r>
       <r>  -10.8652    1.0000 </r>
       <r>  -10.7080    1.0000 </r>
       <r>  -10.7057    1.0000 </r>
       <r>  -10.6635    1.0000 </r>
       <r>  -10.6444    1.0000 </r>
       <r>  -10.6435    1.0000 </r>
       <r>  -10.5155    1.0000 </r>
       <r>  -10.5148    1.0000 </r>
       <r>  -10.4772    1.0000 </r>
       <r>  -10.3763    1.0000 </r>
       <r>  -10.2358    1.0000 </r>
       <r>  -10.2165    1.0000 </r>
       <r>  -10.2115    1.0000 </r>
       <r>  -10.1550    1.0000 </r>
       <r>  -10.0807    1.0000 </r>
       <r>  -10.0151    1.0000 </r>
       <r>   -9.9571    1.0000 </r>
       <r>   -9.9565    1.0000 </r>
       <r>   -9.9256    1.0000 </r>
       <r>   -9.9248    1.0000 </r>
       <r>   -9.8944    1.0000 </r>
       <r>   -9.8933    1.0000 </r>
       <r>   -9.6784    1.0000 </r>
       <r>   -9.6770    1.0000 </r>
       <r>   -9.6341    1.0000 </r>
       <r>   -9.5960    1.0000 </r>
       <r>   -9.5948    1.0000 </r>
       <r>   -9.5205    1.0000 </r>
       <r>   -9.4979    1.0000 </r>
       <r>   -9.4972    1.0000 </r>
       <r>   -9.2928    1.0000 </r>
       <r>   -9.2921    1.0000 </r>
       <r>   -9.2519    1.0000 </r>
       <r>   -9.2030    1.0000 </r>
       <r>   -9.0887    1.0000 </r>
       <r>   -9.0714    1.0000 </r>
       <r>   -9.0659    1.0000 </r>
       <r>   -9.0657    1.0000 </r>
       <r>   -8.9559    1.0000 </r>
       <r>   -8.9556    1.0000 </r>
       <r>   -8.8972    1.0000 </r>
       <r>   -8.7764    1.0000 </r>
       <r>   -8.7757    1.0000 </r>
       <r>   -8.7367    1.0000 </r>
       <r>   -8.5233    1.0000 </r>
       <r>   -8.5222    1.0000 </r>
       <r>   -8.3969    1.0000 </r>
       <r>   -8.3965    1.0000 </r>
       <r>   -8.3610    1.0000 </r>
       <r>   -7.9813    1.0000 </r>
       <r>   -7.9808    1.0000 </r>
       <r>   -7.9158    1.0000 </r>
       <r>   -7.8662    1.0000 </r>
       <r>   -7.7925    1.0000 </r>
       <r>   -7.7908    1.0000 </r>
       <r>   -7.6393    1.0000 </r>
       <r>   -7.6380    1.0000 </r>
       <r>   -7.5079    1.0000 </r>
       <r>   -7.4182    1.0000 </r>
       <r>   -7.4180    1.0000 </r>
       <r>   -7.2671    1.0000 </r>
       <r>   -7.2052    1.0000 </r>
       <r>   -7.2048    1.0000 </r>
       <r>   -7.1919    1.0000 </r>
       <r>   -7.1862    1.0000 </r>
       <r>   -7.1854    1.0000 </r>
       <r>   -7.0494    1.0000 </r>
       <r>   -6.9830    1.0000 </r>
       <r>   -6.9040    1.0000 </r>
       <r>   -6.9032    1.0000 </r>
       <r>   -6.7886    1.0000 </r>
       <r>   -6.7869    1.0000 </r>
       <r>   -6.7572    1.0000 </r>
       <r>   -6.6852    1.0000 </r>
       <r>   -6.6707    1.0000 </r>
       <r>   -6.6639    1.0000 </r>
       <r>   -6.6426    1.0000 </r>
       <r>   -6.3384    1.0000 </r>
       <r>   -6.3375    1.0000 </r>
       <r>   -6.0104    1.0000 </r>
       <r>   -6.0097    1.0000 </r>
       <r>   -5.7551    1.0000 </r>
       <r>   -5.7190    1.0000 </r>
       <r>   -5.7185    1.0000 </r>
[...]
       <r>   -20.9410     0.0000    24.0000 </r>
       <r>   -20.8424     0.0000    24.0000 </r>
       <r>   -20.7438    16.7130    25.6480 </r>
       <r>   -20.6452    25.8400    28.8148 </r>
       <r>   -20.5466    12.4832    30.6311 </r>
       <r>   -20.4479    13.9299    32.5743 </r>
       <r>   -20.3493    12.1143    34.1279 </r>
       <r>   -20.2507    49.8512    39.2489 </r>
       <r>   -20.1521    26.0297    42.0000 </r>
       <r>   -20.0535     0.0000    42.0000 </r>
       <r>   -19.9549     0.0000    42.0000 </r>
       <r>   -19.8563    40.9945    46.0422 </r>
       <r>   -19.7577    31.2445    49.7144 </r>
       <r>   -19.6591    27.9192    52.8198 </r>
       <r>   -19.5605     5.4075    54.0000 </r>
       <r>   -19.4619     0.0000    54.0000 </r>
       <r>   -19.3633     0.0000    54.0000 </r>
       <r>   -19.2647     5.5903    54.5512 </r>
       <r>   -19.1661    19.1224    56.7193 </r>
       <r>   -19.0675    17.7942    59.4883 </r>
       <r>   -18.9689     0.0000    60.0000 </r>
       <r>   -18.8703     0.0000    60.0000 </r>
       <r>   -18.7717     0.0000    60.0000 </r>
       <r>   -18.6731     1.7047    60.1681 </r>
       <r>   -18.5745    10.7729    61.6957 </r>
       <r>   -18.4759     6.9327    62.9505 </r>
       <r>   -18.3773     5.4504    63.8042 </r>
       <r>   -18.2787     5.2557    64.4183 </r>
       <r>   -18.1801     6.6257    65.1868 </r>
       <r>   -18.0815     3.3007    65.5921 </r>
       <r>   -17.9828     3.0422    66.0000 </r>
       <r>   -17.8842    31.4902    69.1051 </r>
       <r>   -17.7856    66.8028    76.0547 </r>
       <r>   -17.6870     9.2178    78.5433 </r>
       <r>   -17.5884     4.5383    79.0808 </r>
       <r>   -17.4898     5.1380    79.8733 </r>
       <r>   -17.3912     4.7978    80.5398 </r>
       <r>   -17.2926     9.7030    81.6569 </r>
       <r>   -17.1940    10.0039    83.2532 </r>
       <r>   -17.0954     3.0401    84.0000 </r>
       <r>   -16.9968     0.0000    84.0000 </r>
       <r>   -16.8982     0.0000    84.0000 </r>
       <r>   -16.7996     0.0000    84.0000 </r>
       <r>   -16.7010     0.0000    84.0000 </r>
       <r>   -16.6024     0.0000    84.0000 </r>
       <r>   -16.5038     0.0000    84.0000 </r>
       <r>   -16.4052     9.6421    84.9507 </r>
       <r>   -16.3066    40.3857    89.9493 </r>
       <r>   -16.2080     0.0000    90.0000 </r>
       <r>   -16.1094    12.4414    91.2268 </r>
       <r>   -16.0108     4.0736    91.7684 </r>
       <r>   -15.9122    23.7748    94.2110 </r>
       <r>   -15.8136    51.3228   100.0948 </r>
       <r>   -15.7150    24.7722   102.7427 </r>
       <r>   -15.6164    25.7060   105.4682 </r>
       <r>   -15.5178     7.9976   106.3888 </r>
       <r>   -15.4191     8.0273   107.4250 </r>
       <r>   -15.3205     4.3941   108.0000 </r>
       <r>   -15.2219     0.0000   108.0000 </r>
       <r>   -15.1233     0.0002   108.0000 </r>
       <r>   -15.0247    46.8082   112.6155 </r>
       <r>   -14.9261    10.1372   114.0000 </r>
       <r>   -14.8275     0.0000   114.0000 </r>
       <r>   -14.7289    20.0342   115.9755 </r>
       <r>   -14.6303    11.1501   118.0000 </r>
       <r>   -14.5317     6.4893   118.6399 </r>
       <r>   -14.4331    58.5337   125.9389 </r>
       <r>   -14.3345     0.0000   126.0000 </r>
       <r>   -14.2359    32.9071   129.2448 </r>
       <r>   -14.1373    17.2320   132.0000 </r>
       <r>   -14.0387     0.0000   132.0000 </r>
       <r>   -13.9401     0.0000   132.0000 </r>
       <r>   -13.8415     0.0000   132.0000 </r>
       <r>   -13.7429     0.0000   132.0000 </r>
       <r>   -13.6443     0.0000   132.0000 </r>
       <r>   -13.5457     0.0000   132.0000 </r>
       <r>   -13.4471     0.0000   132.0000 </r>
       <r>   -13.3485     0.0000   132.0000 </r>
       <r>   -13.2499     0.0000   132.0000 </r>
       <r>   -13.1513     0.0000   132.0000 </r>
       <r>   -13.0527    22.6783   134.2362 </r>
       <r>   -12.9541    46.2184   139.7604 </r>
       <r>   -12.8554    14.6301   141.6093 </r>
       <r>   -12.7568    29.9331   144.9515 </r>
       <r>   -12.6582     9.5201   146.3388 </r>
       <r>   -12.5596    18.5303   148.3939 </r>
       <r>   -12.4610    12.8442   150.0000 </r>
       <r>   -12.3624    25.9992   152.5636 </r>
       <r>   -12.2638    47.5665   158.2904 </r>
       <r>   -12.1652    28.0315   162.5986 </r>
       <r>   -12.0666     9.5037   163.9706 </r>
       <r>   -11.9680    14.6212   165.4417 </r>
       <r>   -11.8694    42.0293   170.9111 </r>
       <r>   -11.7708     7.7741   171.9333 </r>
       <r>   -11.6722    19.8297   174.1220 </r>
       <r>   -11.5736    43.8392   179.2564 </r>
       <r>   -11.4750     5.8932   179.9479 </r>
       <r>   -11.3764     0.0000   180.0000 </r>
       <r>   -11.2778     0.0000   180.0000 </r>
       <r>   -11.1792     7.6414   180.7535 </r>
       <r>   -11.0806     6.8062   181.5378 </r>
       <r>   -10.9820    15.1266   183.2249 </r>
       <r>   -10.8834    10.0647   184.3927 </r>
       <r>   -10.7848    11.3244   186.1169 </r>
       <r>   -10.6862    21.6017   188.5636 </r>
       <r>   -10.5876    56.3138   194.6197 </r>
       <r>   -10.4890    50.3508   200.7319 </r>
       <r>   -10.3903    11.8100   202.5312 </r>
       <r>   -10.2917    14.9919   204.6119 </r>
       <r>   -10.1931    12.7423   206.8898 </r>
       <r>   -10.0945    53.7412   212.5325 </r>
       <r>    -9.9959    43.5112   218.3573 </r>
       <r>    -9.8973    44.8222   223.3865 </r>
       <r>    -9.7987    26.2274   227.9867 </r>
       <r>    -9.7001    34.1623   231.3685 </r>
       <r>    -9.6015    46.3323   237.5369 </r>
       <r>    -9.5029    16.8307   240.0930 </r>
       <r>    -9.4043    19.4873   242.6218 </r>
       <r>    -9.3057    14.5396   244.2671 </r>
       <r>    -9.2071    47.4823   250.5166 </r>
       <r>    -9.1085    18.4508   253.3862 </r>
       <r>    -9.0099    59.5034   260.2021 </r>
       <r>    -8.9113    30.1288   264.0043 </r>
       <r>    -8.8127     7.5714   264.9468 </r>
       <r>    -8.7141    63.0225   271.6478 </r>
       <r>    -8.6155    10.2764   273.0800 </r>
       <r>    -8.5169    27.1884   275.8809 </r>
       <r>    -8.4183     0.0313   276.0031 </r>
       <r>    -8.3197    60.8183   282.0000 </r>
       <r>    -8.2211     0.0000   282.0000 </r>
       <r>    -8.1225     0.0000   282.0000 </r>
       <r>    -8.0239    14.4933   283.4291 </r>
       <r>    -7.9253    33.8946   287.6764 </r>
       <r>    -7.8266     7.2007   288.7100 </r>
       <r>    -7.7280    27.0242   291.9314 </r>
       <r>    -7.6294    21.4690   294.4838 </r>
       <r>    -7.5308    24.3982   297.3726 </r>
       <r>    -7.4322    35.7644   301.2267 </r>
       <r>    -7.3336    20.0021   304.7726 </r>
       <r>    -7.2350    25.4298   307.7075 </r>
       <r>    -7.1364    85.9777   317.7461 </r>
       <r>    -7.0378    22.1634   320.7858 </r>
       <r>    -6.9392    10.0298   321.9892 </r>
       <r>    -6.8406    28.2649   324.9538 </r>
       <r>    -6.7420    29.7077   327.9626 </r>
       <r>    -6.6434    33.7160   332.6253 </r>
       <r>    -6.5448    18.9551   334.8026 </r>
       <r>    -6.4462    21.5396   337.4239 </r>
       <r>    -6.3476    18.0685   339.5486 </r>
       <r>    -6.2490    11.1545   342.0000 </r>
       <r>    -6.1504     1.1570   342.1141 </r>
       <r>    -6.0518     8.8456   343.4390 </r>
       <r>    -5.9532    23.8183   345.9160 </r>
       <r>    -5.8546     9.8442   347.0708 </r>
       <r>    -5.7560     6.9416   347.8846 </r>
       <r>    -5.6574    60.8334   354.0000 </r>
       <r>    -5.5588     0.0006   354.0001 </r>
       <r>    -5.4602    53.2768   359.2534 </r>
       <r>    -5.3615     0.0000   360.0000 </r>
       <r>    -5.2629     0.0000   360.0000 </r>
       <r>    -5.1643     0.0000   360.0000 </r>
       <r>    -5.0657     0.0000   360.0000 </r>
       <r>    -4.9671     0.0000   360.0000 </r>
       <r>    -4.8685     0.0000   360.0000 </r>
       <r>    -4.7699     4.4389   360.4377 </r>
       <r>    -4.6713    51.7155   366.0000 </r>
       <r>    -4.5727    43.0211   370.2421 </r>
       <r>    -4.4741     5.7500   373.0671 </r>
       <r>    -4.3755    14.3651   374.8833 </r>
       <r>    -4.2769     7.2637   375.7164 </r>
       <r>    -4.1783    11.1514   378.0000 </r>
       <r>    -4.0797     0.0000   378.0000 </r>
       <r>    -3.9811     0.0000   378.0000 </r>
       <r>    -3.8825     0.0000   378.0000 </r>
       <r>    -3.7839     0.0000   378.0000 </r>
       <r>    -3.6853     0.0000   378.0000 </r>
       <r>    -3.5867     0.0000   378.0000 </r>
       <r>    -3.4881     0.0000   378.0000 </r>
       <r>    -3.3895     0.0000   378.0000 </r>
       <r>    -3.2909     0.0000   378.0000 </r>
       <r>    -3.1923     0.0000   378.0000 </r>
       <r>    -3.0937     0.0000   378.0000 </r>
       <r>    -2.9951     0.0000   378.0000 </r>
       <r>    -2.8965     0.0000   378.0000 </r>
       <r>    -2.7978     0.0000   378.0000 </r>
       <r>    -2.6992     0.0000   378.0000 </r>
       <r>    -2.6006     8.2369   378.8122 </r>
       <r>    -2.5020    11.6415   380.8816 </r>
       <r>    -2.4034     9.4770   381.9012 </r>
       <r>    -2.3048     8.3348   382.9219 </r>
       <r>    -2.2062     2.3836   383.2350 </r>
       <r>    -2.1076     2.4716   383.5437 </r>
       <r>    -2.0090     3.7186   384.0000 </r>
       <r>    -1.9104   115.5027   395.3890 </r>
       <r>    -1.8118    23.6532   397.8990 </r>
       <r>    -1.7132    24.7641   400.4418 </r>
       <r>    -1.6146    12.8707   401.9359 </r>
       <r>    -1.5160     5.0888   402.6687 </r>
       <r>    -1.4174     5.7354   403.2989 </r>
       <r>    -1.3188    12.4593   404.5954 </r>
       <r>    -1.2202    15.7762   406.6225 </r>
       <r>    -1.1216    14.9642   408.5090 </r>
       <r>    -1.0230    19.1766   410.6243 </r>
       <r>    -0.9244     2.2669   411.1902 </r>
       <r>    -0.8258     6.0791   411.8328 </r>
       <r>    -0.7272    10.6095   413.0463 </r>
       <r>    -0.6286     9.3297   414.1535 </r>
       <r>    -0.5300    50.9205   419.3212 </r>
       <r>    -0.4314     7.6297   420.7523 </r>
       <r>    -0.3328     0.0000   422.0000 </r>
       <r>    -0.2341     0.2488   422.0245 </r>
       <r>    -0.1355    37.2142   426.8372 </r>
       <r>    -0.0369    12.1534   428.2319 </r>
       <r>     0.0617     6.4578   429.0702 </r>
       <r>     0.1603    21.9258   431.2953 </r>
       <r>     0.2589    32.3012   435.2520 </r>
       <r>     0.3575    13.6572   436.9467 </r>
       <r>     0.4561    30.2052   440.2118 </r>
       <r>     0.5547    27.4032   443.9024 </r>
       <r>     0.6533    25.9340   448.0577 </r>
       <r>     0.7519    22.2648   450.5956 </r>
       <r>     0.8505    25.4500   453.5763 </r>
       <r>     0.9491    51.8391   459.3451 </r>
       <r>     1.0477    22.6695   461.9690 </r>
       <r>     1.1463    35.6422   465.6814 </r>
       <r>     1.2449    46.8970   471.3912 </r>
       <r>     1.3435    52.1791   478.1463 </r>
       <r>     1.4421    32.9545   482.5497 </r>
       <r>     1.5407    51.7208   488.6340 </r>
       <r>     1.6393    54.7241   494.9963 </r>
       <r>     1.7379    38.5673   500.0368 </r>
       <r>     1.8365    61.0043   506.3155 </r>
       <r>     1.9351    27.9086   510.6862 </r>
       <r>     2.0337     3.3786   512.0000 </r>
       <r>     2.1323     0.0000   512.0000 </r>
       <r>     2.2310     0.0000   512.0000 </r>
       <r>     2.3296     0.0000   512.0000 </r>
       <r>     2.4282     0.0000   512.0000 </r>
       <r>     2.5268     0.0000   512.0000 </r>
       <r>     2.6254     0.0000   512.0000 </r>
       <r>     2.7240     0.0000   512.0000 </r>
       <r>     2.8226     0.0000   512.0000 </r>
       <r>     2.9212     0.0000   512.0000 </r>
       <r>     3.0198     0.0000   512.0000 </r>
       <r>     3.1184     0.0000   512.0000 </r>
       <r>     3.2170     0.0000   512.0000 </r>
       <r>     3.3156     0.0000   512.0000 </r>
      </set>
     </set>
    </array>
   </total>
  </dos>
 </calculation>
 <structure name="finalpos" >
  <crystal>
   <varray name="basis" >
    <v>      21.29595380       0.00075311       0.00000000 </v>
    <v>     -10.64727031      18.43648276       0.00000000 </v>
    <v>      -0.00000002      -0.00066028      20.00000000 </v>
   </varray>
   <i name="volume">   7852.61007329 </i>
   <varray name="rec_basis" >
    <v>       0.04695632       0.02711779       0.00000090 </v>
    <v>      -0.00000192       0.05423917       0.00000179 </v>
    <v>       0.00000000       0.00000000       0.05000000 </v>
   </varray>
  </crystal>
  <varray name="positions" >
   <v>       0.76316442       0.30027030       0.46071920 </v>
   <v>       0.70085752       0.23799277       0.46070203 </v>
   <v>       0.38770396       0.23784929       0.46048623 </v>
   <v>       0.38764981       0.30013901       0.46048504 </v>
   <v>       0.70067333       0.61303146       0.46022111 </v>
   <v>       0.76298785       0.61306479       0.46015670 </v>
   <v>       0.13836087       0.80045475       0.46197223 </v>
   <v>       0.20067342       0.86269933       0.46208611 </v>
   <v>       0.51262096       0.86250710       0.46174136 </v>
   <v>       0.51265335       0.80021246       0.46177348 </v>
   <v>       0.20056523       0.48815650       0.46193100 </v>
   <v>       0.13828441       0.48813494       0.46195997 </v>
   <v>       0.95058284       0.58420043       0.50126310 </v>
   <v>       0.01801059       0.65150438       0.50211554 </v>
   <v>       0.01705696       0.71786202       0.50283351 </v>
   <v>       0.95049621       0.71595084       0.50353480 </v>
   <v>       0.88397870       0.65123552       0.50200478 </v>
   <v>       0.88310750       0.58397708       0.50122259 </v>
   <v>       0.08385352       0.64920626       0.50532408 </v>
   <v>       0.81724013       0.51576654       0.50353895 </v>
   <v>       0.95061601       0.51671496       0.50136894 </v>
   <v>       0.01807416       0.51692619       0.50226866 </v>
   <v>       0.01716003       0.44963524       0.50311799 </v>
   <v>       0.95062885       0.38494145       0.50397025 </v>
   <v>       0.88409660       0.38306610       0.50246589 </v>
   <v>       0.88316611       0.44941970       0.50146642 </v>
   <v>       0.08388880       0.58513614       0.50538042 </v>
   <v>       0.81727367       0.45169828       0.50365604 </v>
   <v>       0.68974070       0.18392612       0.50322156 </v>
   <v>       0.74482854       0.19127475       0.54698117 </v>
   <v>       0.80970873       0.25613345       0.54701211 </v>
   <v>       0.81715864       0.31129047       0.50328426 </v>
   <v>       0.34478385       0.31120778       0.50314995 </v>
   <v>       0.29711318       0.25610078       0.54693607 </v>
   <v>       0.29719177       0.19126974       0.54694931 </v>
   <v>       0.34490239       0.18390215       0.50317307 </v>
   <v>       0.81699944       0.65598702       0.50277350 </v>
   <v>       0.80959995       0.70363015       0.54663061 </v>
   <v>       0.74474429       0.70361360       0.54668292 </v>
   <v>       0.68964110       0.65593601       0.50289171 </v>
   <v>       0.21150170       0.91695148       0.50424423 </v>
   <v>       0.15611731       0.90978177       0.54750713 </v>
   <v>       0.09117853       0.84495874       0.54734193 </v>
   <v>       0.08401049       0.78962883       0.50398448 </v>
   <v>       0.55620954       0.78949429       0.50385120 </v>
   <v>       0.60435646       0.84488325       0.54716379 </v>
   <v>       0.60433907       0.90975322       0.54710887 </v>
   <v>       0.55616107       0.91688483       0.50376104 </v>
   <v>       0.08408600       0.44481263       0.50418817 </v>
   <v>       0.09129559       0.39672130       0.54760056 </v>
   <v>       0.15616670       0.39673505       0.54758614 </v>
   <v>       0.21145494       0.44481568       0.50415710 </v>
   <v>       0.48434466       0.05045165       0.50130580 </v>
   <v>       0.48414263       0.98297334       0.50202008 </v>
   <v>       0.55139752       0.98386647       0.50271273 </v>
   <v>       0.61607664       0.05043610       0.50361811 </v>
   <v>       0.61795251       0.11699332       0.50230972 </v>
   <v>       0.55161796       0.11794009       0.50141603 </v>
   <v>       0.41598157       0.91711336       0.50512392 </v>
   <v>       0.54931029       0.18384304       0.50370857 </v>
   <v>       0.41686249       0.05044680       0.50138667 </v>
   <v>       0.34959817       0.98297041       0.50226923 </v>
   <v>       0.28325314       0.98388918       0.50318240 </v>
   <v>       0.28511843       0.05044002       0.50402863 </v>
   <v>       0.34978301       0.11698424       0.50244630 </v>
   <v>       0.41705323       0.11792400       0.50148581 </v>
   <v>       0.35191770       0.91711289       0.50527536 </v>
   <v>       0.48523699       0.18383518       0.50373232 </v>
   <v>       0.41679338       0.51663097       0.50136799 </v>
   <v>       0.34955480       0.51686127       0.50221265 </v>
   <v>       0.28317839       0.44959717       0.50308132 </v>
   <v>       0.28499837       0.38488638       0.50395812 </v>
   <v>       0.34964226       0.38299299       0.50240960 </v>
   <v>       0.41693468       0.44932395       0.50147157 </v>
   <v>       0.35193503       0.58506836       0.50526406 </v>
   <v>       0.48509658       0.45158226       0.50373488 </v>
   <v>       0.48430243       0.58410430       0.50130821 </v>
   <v>       0.48416170       0.65140212       0.50209726 </v>
   <v>       0.55144666       0.71775600       0.50283321 </v>
   <v>       0.61610356       0.71586252       0.50365247 </v>
   <v>       0.61790606       0.65114501       0.50217947 </v>
   <v>       0.55154614       0.58387476       0.50133953 </v>
   <v>       0.41602925       0.64912481       0.50521345 </v>
   <v>       0.54919824       0.51564869       0.50364938 </v>
   <v>       0.95049188       0.76723082       0.50213892 </v>
   <v>       0.95063807       0.33366554       0.50262266 </v>
   <v>       0.13525477       0.58583451       0.50682177 </v>
   <v>       0.13518493       0.69993737       0.50671761 </v>
   <v>       0.76592688       0.40095687       0.50437307 </v>
   <v>       0.76587287       0.51510557       0.50419854 </v>
   <v>       0.85324400       0.26575056       0.58159962 </v>
   <v>       0.73514510       0.14769238       0.58154931 </v>
   <v>       0.26335865       0.14771130       0.58155011 </v>
   <v>       0.26321194       0.26573634       0.58152515 </v>
   <v>       0.73509635       0.73748047       0.58132782 </v>
   <v>       0.85314862       0.73747500       0.58123394 </v>
   <v>       0.04737066       0.83555996       0.58149342 </v>
   <v>       0.16556787       0.95349741       0.58181195 </v>
   <v>       0.63863700       0.95353866       0.58133886 </v>
   <v>       0.63867025       0.83549562       0.58144894 </v>
   <v>       0.16562908       0.36248481       0.58188441 </v>
   <v>       0.04759165       0.36245040       0.58190282 </v>
   <v>       0.66735169       0.05045930       0.50217678 </v>
   <v>       0.23385012       0.05042858       0.50276239 </v>
   <v>       0.30122812       0.86573955       0.50667690 </v>
   <v>       0.41533081       0.86574855       0.50636434 </v>
   <v>       0.48587221       0.23520572       0.50446087 </v>
   <v>       0.60002063       0.23523220       0.50437080 </v>
   <v>       0.23370418       0.33362356       0.50265692 </v>
   <v>       0.66738342       0.76712731       0.50223279 </v>
   <v>       0.41542741       0.69985971       0.50652404 </v>
   <v>       0.30126880       0.58577664       0.50663987 </v>
   <v>       0.59988400       0.51494914       0.50433082 </v>
   <v>       0.48571445       0.40084193       0.50452713 </v>
  </varray>
 </structure>
</modeling>
