<?xml version="1.0" encoding="ISO-8859-1"?>
<modeling>
 <generator>
  <i name="program" type="string">vasp </i>
  <i name="version" type="string">5.4.4.18Apr17-6-g9f103f2a35  </i>
  <i name="subversion" type="string">(build Jun 07 2020 16:50:00) complex            parallel </i>
  <i name="platform" type="string">LinuxIFC </i>
  <i name="date" type="string">2023 02 27 </i>
  <i name="time" type="string">02:04:00 </i>
 </generator>
 <incar>
  <i type="string" name="SYSTEM">Simulation for cell shape cell volume r</i>
  <i type="int" name="ISTART">     1</i>
  <i type="string" name="PREC">high</i>
  <i type="string" name="ALGO">48</i>
  <i type="int" name="ICHARG">    11</i>
  <i type="int" name="NELM">   200</i>
  <i type="int" name="IBRION">    -1</i>
  <i name="EDIFF">      0.00001000</i>
  <i name="EDIFFG">     -0.01000000</i>
  <i type="int" name="NSW">     0</i>
  <i type="int" name="ISIF">     2</i>
  <i name="ENCUT">    500.00000000</i>
  <i name="POTIM">      0.30000000</i>
  <i type="string" name="LREAL">A</i>
  <i type="int" name="ISMEAR">     0</i>
  <i name="SIGMA">      0.01000000</i>
  <i type="int" name="NWRITE">     0</i>
  <i type="logical" name="LWAVE"> F  </i>
  <i type="logical" name="LCHARG"> F  </i>
  <v type="int" name="KPOINT_BSE">    -1     0     0     0</v>
  <i type="int" name="NELM">   200</i>
  <i type="string" name="GGA">PE</i>
 </incar>
 <structure name="primitive_cell" >
  <crystal>
   <varray name="basis" >
    <v>      14.91281776       0.03149817       0.00000000 </v>
    <v>       0.06719248      25.19836797       0.00000000 </v>
    <v>       1.02387028       0.58407687      20.00000000 </v>
   </varray>
   <i name="volume">   7515.53105671 </i>
   <varray name="rec_basis" >
    <v>       0.06705679      -0.00017881      -0.00342765 </v>
    <v>      -0.00008382       0.03968533      -0.00115467 </v>
    <v>       0.00000000       0.00000000       0.05000000 </v>
   </varray>
  </crystal>
  <varray name="positions" >
   <v>       0.03451734       0.02051462       0.49439478 </v>
   <v>       0.11387420       0.05048847       0.49133680 </v>
   <v>      -0.04603124       0.04968016       0.49481476 </v>
   <v>       0.03594986      -0.03831836       0.49458469 </v>
   <v>       0.17848301       0.03061989       0.49553371 </v>
   <v>      -0.11021146       0.02928157      -0.49772111 </v>
   <v>      -0.04901180       0.10501373       0.48710296 </v>
   <v>       0.11522882       0.10587703       0.48393378 </v>
   <v>      -0.04299061      -0.06816702       0.49167326 </v>
   <v>       0.11645340      -0.06748420       0.49515418 </v>
   <v>      -0.10817836      -0.04847288       0.49564637 </v>
   <v>       0.17961805      -0.04737768      -0.49760589 </v>
   <v>       0.03278385       0.13369854       0.47704902 </v>
   <v>      -0.13709007       0.13255881       0.48933732 </v>
   <v>       0.20213160       0.13416450       0.48395624 </v>
   <v>      -0.04330781      -0.12324974       0.48463203 </v>
   <v>       0.12053241      -0.12250090       0.48780972 </v>
   <v>      -0.20299503       0.07576259       0.42964811 </v>
   <v>       0.27707487       0.07722714       0.42430635 </v>
   <v>       0.03211330       0.18752713       0.46056553 </v>
   <v>       0.04007759      -0.15078745       0.47807286 </v>
   <v>       0.28095975       0.11350023       0.45245397 </v>
   <v>      -0.21142810       0.11186207       0.45813506 </v>
   <v>      -0.02481003       0.20207751       0.44117492 </v>
   <v>       0.08964526       0.20273040       0.43877817 </v>
   <v>      -0.19671639      -0.09187037       0.42467468 </v>
   <v>       0.28246180      -0.09044521       0.43033894 </v>
   <v>       0.20957736       0.18168420      -0.48121665 </v>
   <v>      -0.15009043       0.17967014      -0.47499007 </v>
   <v>      -0.09464584       0.19566625      -0.44848470 </v>
   <v>       0.15049631       0.19775864      -0.45448361 </v>
   <v>      -0.13018413      -0.15154875       0.48450583 </v>
   <v>       0.20838637      -0.15006704       0.48999468 </v>
   <v>      -0.20455457      -0.12944841       0.45280268 </v>
   <v>       0.28697721      -0.12788231       0.45878165 </v>
   <v>       0.04293964      -0.20398549       0.46215991 </v>
   <v>       0.36340698       0.13867937       0.45618970 </v>
   <v>      -0.29477883       0.13704439       0.46216228 </v>
   <v>       0.29109081       0.20780910      -0.47922106 </v>
   <v>      -0.23242855       0.20566944      -0.47244287 </v>
   <v>      -0.14251293      -0.20070312      -0.48073651 </v>
   <v>       0.21661862      -0.19884237      -0.47439370 </v>
   <v>       0.10250623      -0.21763042       0.44269129 </v>
   <v>      -0.01150780      -0.21816914       0.44022295 </v>
   <v>       0.15759928      -0.21608172      -0.44783714 </v>
   <v>      -0.08722632      -0.21802927      -0.45388344 </v>
   <v>       0.42407124       0.12194114       0.43232777 </v>
   <v>      -0.35192266       0.12056118       0.43807756 </v>
   <v>       0.36933665       0.18658584       0.48974196 </v>
   <v>      -0.30597733       0.18482831       0.49601497 </v>
   <v>      -0.28751773      -0.15479508       0.45637425 </v>
   <v>       0.36979376      -0.15325403       0.46269329 </v>
   <v>       0.29584006       0.24463034      -0.45242308 </v>
   <v>      -0.24141231       0.24233002      -0.44531889 </v>
   <v>      -0.34480816      -0.13691790       0.43242511 </v>
   <v>       0.43022790      -0.13561957       0.43864831 </v>
   <v>      -0.22426985      -0.22693661      -0.47896283 </v>
   <v>       0.29858915      -0.22499048      -0.47202067 </v>
   <v>      -0.29814858      -0.20425081       0.48991484 </v>
   <v>       0.37638972      -0.20267698       0.49636393 </v>
   <v>       0.45545642       0.21460795       0.49424947 </v>
   <v>      -0.39261511       0.21354096       0.49868607 </v>
   <v>      -0.23279909      -0.26503103      -0.45226317 </v>
   <v>       0.30387609      -0.26294549      -0.44499211 </v>
   <v>      -0.46766583       0.18667289       0.48643838 </v>
   <v>       0.45086904       0.26672655      -0.49283785 </v>
   <v>      -0.39038337       0.26530659      -0.48649591 </v>
   <v>      -0.38489388      -0.23245558       0.49444648 </v>
   <v>       0.46261441      -0.23156505       0.49882657 </v>
   <v>      -0.46065330      -0.20411402       0.48665448 </v>
   <v>      -0.38210868      -0.28517403      -0.49262055 </v>
   <v>       0.45830966      -0.28406074      -0.48662727 </v>
   <v>      -0.33290983       0.35203658      -0.44971236 </v>
   <v>       0.39278329       0.35826405       0.49483999 </v>
   <v>      -0.46994981       0.29066095      -0.48566140 </v>
   <v>      -0.39253959       0.37532633      -0.46029977 </v>
   <v>       0.45280335       0.37884682      -0.49115120 </v>
   <v>      -0.46225670      -0.30946893      -0.48571298 </v>
   <v>      -0.47012042       0.34881446      -0.47803773 </v>
   <v>       0.39575234      -0.37252577      -0.45027411 </v>
   <v>      -0.32217291      -0.37622473       0.49490081 </v>
   <v>      -0.39193922       0.43030953      -0.45648442 </v>
   <v>      -0.33159222       0.44998422      -0.44126367 </v>
   <v>       0.45416731       0.43387260      -0.48833829 </v>
   <v>       0.45685391      -0.39534907      -0.46070042 </v>
   <v>       0.39481204       0.45649369       0.49838241 </v>
   <v>      -0.38416600      -0.39743893      -0.49118616 </v>
   <v>      -0.46309321      -0.36800695      -0.47824965 </v>
   <v>      -0.46809156       0.46093620      -0.47136575 </v>
   <v>       0.45572083      -0.45050605      -0.45681854 </v>
   <v>      -0.38590184      -0.45259713      -0.48826231 </v>
   <v>       0.39324216      -0.47086038      -0.44164670 </v>
   <v>      -0.32463103      -0.47462709       0.49878039 </v>
   <v>      -0.46601445      -0.48044844      -0.47143481 </v>
  </varray>
 </structure>
 <varray name="primitive_index" >
  <v type="int" >        1 </v>
  <v type="int" >        6 </v>
  <v type="int" >        2 </v>
  <v type="int" >        7 </v>
  <v type="int" >       67 </v>
  <v type="int" >       93 </v>
  <v type="int" >        3 </v>
  <v type="int" >        5 </v>
  <v type="int" >        8 </v>
  <v type="int" >       12 </v>
  <v type="int" >       68 </v>
  <v type="int" >       94 </v>
  <v type="int" >        4 </v>
  <v type="int" >       52 </v>
  <v type="int" >       46 </v>
  <v type="int" >        9 </v>
  <v type="int" >       11 </v>
  <v type="int" >       86 </v>
  <v type="int" >       83 </v>
  <v type="int" >       55 </v>
  <v type="int" >       10 </v>
  <v type="int" >       47 </v>
  <v type="int" >       51 </v>
  <v type="int" >       66 </v>
  <v type="int" >       65 </v>
  <v type="int" >       71 </v>
  <v type="int" >       74 </v>
  <v type="int" >       45 </v>
  <v type="int" >       53 </v>
  <v type="int" >       88 </v>
  <v type="int" >       81 </v>
  <v type="int" >       25 </v>
  <v type="int" >       31 </v>
  <v type="int" >       26 </v>
  <v type="int" >       30 </v>
  <v type="int" >       56 </v>
  <v type="int" >       48 </v>
  <v type="int" >       50 </v>
  <v type="int" >       44 </v>
  <v type="int" >       54 </v>
  <v type="int" >       24 </v>
  <v type="int" >       32 </v>
  <v type="int" >       64 </v>
  <v type="int" >       63 </v>
  <v type="int" >       76 </v>
  <v type="int" >       69 </v>
  <v type="int" >       84 </v>
  <v type="int" >       85 </v>
  <v type="int" >       43 </v>
  <v type="int" >       49 </v>
  <v type="int" >       27 </v>
  <v type="int" >       29 </v>
  <v type="int" >       82 </v>
  <v type="int" >       87 </v>
  <v type="int" >       72 </v>
  <v type="int" >       73 </v>
  <v type="int" >       23 </v>
  <v type="int" >       33 </v>
  <v type="int" >       22 </v>
  <v type="int" >       28 </v>
  <v type="int" >       34 </v>
  <v type="int" >       36 </v>
  <v type="int" >       70 </v>
  <v type="int" >       75 </v>
  <v type="int" >       62 </v>
  <v type="int" >       60 </v>
  <v type="int" >       61 </v>
  <v type="int" >       13 </v>
  <v type="int" >       15 </v>
  <v type="int" >       59 </v>
  <v type="int" >       57 </v>
  <v type="int" >       58 </v>
  <v type="int" >       89 </v>
  <v type="int" >       92 </v>
  <v type="int" >       35 </v>
  <v type="int" >       42 </v>
  <v type="int" >       38 </v>
  <v type="int" >       14 </v>
  <v type="int" >       37 </v>
  <v type="int" >       77 </v>
  <v type="int" >       80 </v>
  <v type="int" >       41 </v>
  <v type="int" >       90 </v>
  <v type="int" >       39 </v>
  <v type="int" >       21 </v>
  <v type="int" >       91 </v>
  <v type="int" >       17 </v>
  <v type="int" >       16 </v>
  <v type="int" >       40 </v>
  <v type="int" >       20 </v>
  <v type="int" >       18 </v>
  <v type="int" >       78 </v>
  <v type="int" >       79 </v>
  <v type="int" >       19 </v>
 </varray>
 <kpoints>
  <generation param="listgenerated">
   <i name="divisions" type="int">      20 </i>
   <v>       0.00000000       0.00000000       0.00000000 </v>
   <v>       0.50000000       0.00000000       0.00000000 </v>
   <v>       0.50140266       0.49597403       0.00000000 </v>
   <v>       0.50000000       0.50000000       0.00000000 </v>
   <v>       0.49859734       0.50402597       0.00000000 </v>
   <v>       0.00000000       0.50000000       0.00000000 </v>
   <v>       0.00000000       0.00000000       0.00000000 </v>
  </generation>
  <varray name="kpointlist" >
   <v>       0.00000000       0.00000000       0.00000000 </v>
   <v>       0.02631579       0.00000000       0.00000000 </v>
   <v>       0.05263158       0.00000000       0.00000000 </v>
   <v>       0.07894737       0.00000000       0.00000000 </v>
   <v>       0.10526316       0.00000000       0.00000000 </v>
   <v>       0.13157895       0.00000000       0.00000000 </v>
   <v>       0.15789474       0.00000000       0.00000000 </v>
   <v>       0.18421053       0.00000000       0.00000000 </v>
   <v>       0.21052632       0.00000000       0.00000000 </v>
   <v>       0.23684211       0.00000000       0.00000000 </v>
   <v>       0.26315789       0.00000000       0.00000000 </v>
   <v>       0.28947368       0.00000000       0.00000000 </v>
   <v>       0.31578947       0.00000000       0.00000000 </v>
   <v>       0.34210526       0.00000000       0.00000000 </v>
   <v>       0.36842105       0.00000000       0.00000000 </v>
   <v>       0.39473684       0.00000000       0.00000000 </v>
   <v>       0.42105263       0.00000000       0.00000000 </v>
   <v>       0.44736842       0.00000000       0.00000000 </v>
   <v>       0.47368421       0.00000000       0.00000000 </v>
   <v>       0.50000000       0.00000000       0.00000000 </v>
   <v>       0.50000000       0.00000000       0.00000000 </v>
   <v>       0.50007382       0.02610390       0.00000000 </v>
   <v>       0.50014765       0.05220779       0.00000000 </v>
   <v>       0.50022147       0.07831169       0.00000000 </v>
   <v>       0.50029530       0.10441559       0.00000000 </v>
   <v>       0.50036912       0.13051948       0.00000000 </v>
   <v>       0.50044295       0.15662338       0.00000000 </v>
   <v>       0.50051677       0.18272728       0.00000000 </v>
   <v>       0.50059059       0.20883117       0.00000000 </v>
   <v>       0.50066442       0.23493507       0.00000000 </v>
   <v>       0.50073824       0.26103897       0.00000000 </v>
   <v>       0.50081207       0.28714286       0.00000000 </v>
   <v>       0.50088589       0.31324676       0.00000000 </v>
   <v>       0.50095971       0.33935066       0.00000000 </v>
   <v>       0.50103354       0.36545455       0.00000000 </v>
   <v>       0.50110736       0.39155845       0.00000000 </v>
   <v>       0.50118119       0.41766234       0.00000000 </v>
   <v>       0.50125501       0.44376624       0.00000000 </v>
   <v>       0.50132884       0.46987014       0.00000000 </v>
   <v>       0.50140266       0.49597403       0.00000000 </v>
   <v>       0.50140266       0.49597403       0.00000000 </v>
   <v>       0.50132884       0.49618593       0.00000000 </v>
   <v>       0.50125501       0.49639782       0.00000000 </v>
   <v>       0.50118119       0.49660971       0.00000000 </v>
   <v>       0.50110736       0.49682161       0.00000000 </v>
   <v>       0.50103354       0.49703350       0.00000000 </v>
   <v>       0.50095971       0.49724539       0.00000000 </v>
   <v>       0.50088589       0.49745728       0.00000000 </v>
   <v>       0.50081207       0.49766918       0.00000000 </v>
   <v>       0.50073824       0.49788107       0.00000000 </v>
   <v>       0.50066442       0.49809296       0.00000000 </v>
   <v>       0.50059059       0.49830486       0.00000000 </v>
   <v>       0.50051677       0.49851675       0.00000000 </v>
   <v>       0.50044295       0.49872864       0.00000000 </v>
   <v>       0.50036912       0.49894054       0.00000000 </v>
   <v>       0.50029530       0.49915243       0.00000000 </v>
   <v>       0.50022147       0.49936432       0.00000000 </v>
   <v>       0.50014765       0.49957621       0.00000000 </v>
   <v>       0.50007382       0.49978811       0.00000000 </v>
   <v>       0.50000000       0.50000000       0.00000000 </v>
   <v>       0.50000000       0.50000000       0.00000000 </v>
   <v>       0.49992618       0.50021189       0.00000000 </v>
   <v>       0.49985235       0.50042379       0.00000000 </v>
   <v>       0.49977853       0.50063568       0.00000000 </v>
   <v>       0.49970470       0.50084757       0.00000000 </v>
   <v>       0.49963088       0.50105946       0.00000000 </v>
   <v>       0.49955705       0.50127136       0.00000000 </v>
   <v>       0.49948323       0.50148325       0.00000000 </v>
   <v>       0.49940941       0.50169514       0.00000000 </v>
   <v>       0.49933558       0.50190704       0.00000000 </v>
   <v>       0.49926176       0.50211893       0.00000000 </v>
   <v>       0.49918793       0.50233082       0.00000000 </v>
   <v>       0.49911411       0.50254272       0.00000000 </v>
   <v>       0.49904029       0.50275461       0.00000000 </v>
   <v>       0.49896646       0.50296650       0.00000000 </v>
   <v>       0.49889264       0.50317839       0.00000000 </v>
   <v>       0.49881881       0.50339029       0.00000000 </v>
   <v>       0.49874499       0.50360218       0.00000000 </v>
   <v>       0.49867116       0.50381407       0.00000000 </v>
   <v>       0.49859734       0.50402597       0.00000000 </v>
   <v>       0.49859734       0.50402597       0.00000000 </v>
   <v>       0.47235537       0.50381407       0.00000000 </v>
   <v>       0.44611341       0.50360218       0.00000000 </v>
   <v>       0.41987144       0.50339029       0.00000000 </v>
   <v>       0.39362948       0.50317839       0.00000000 </v>
   <v>       0.36738751       0.50296650       0.00000000 </v>
   <v>       0.34114555       0.50275461       0.00000000 </v>
   <v>       0.31490358       0.50254272       0.00000000 </v>
   <v>       0.28866162       0.50233082       0.00000000 </v>
   <v>       0.26241965       0.50211893       0.00000000 </v>
   <v>       0.23617769       0.50190704       0.00000000 </v>
   <v>       0.20993572       0.50169514       0.00000000 </v>
   <v>       0.18369376       0.50148325       0.00000000 </v>
   <v>       0.15745179       0.50127136       0.00000000 </v>
   <v>       0.13120983       0.50105946       0.00000000 </v>
   <v>       0.10496786       0.50084757       0.00000000 </v>
   <v>       0.07872590       0.50063568       0.00000000 </v>
   <v>       0.05248393       0.50042379       0.00000000 </v>
   <v>       0.02624197       0.50021189       0.00000000 </v>
   <v>       0.00000000       0.50000000       0.00000000 </v>
   <v>       0.00000000       0.50000000       0.00000000 </v>
   <v>       0.00000000       0.47368421       0.00000000 </v>
   <v>       0.00000000       0.44736842       0.00000000 </v>
   <v>       0.00000000       0.42105263       0.00000000 </v>
   <v>       0.00000000       0.39473684       0.00000000 </v>
   <v>       0.00000000       0.36842105       0.00000000 </v>
   <v>       0.00000000       0.34210526       0.00000000 </v>
   <v>       0.00000000       0.31578947       0.00000000 </v>
   <v>       0.00000000       0.28947368       0.00000000 </v>
   <v>       0.00000000       0.26315789       0.00000000 </v>
   <v>       0.00000000       0.23684211       0.00000000 </v>
   <v>       0.00000000       0.21052632       0.00000000 </v>
   <v>       0.00000000       0.18421053       0.00000000 </v>
   <v>       0.00000000       0.15789474       0.00000000 </v>
   <v>       0.00000000       0.13157895       0.00000000 </v>
   <v>       0.00000000       0.10526316       0.00000000 </v>
   <v>       0.00000000       0.07894737       0.00000000 </v>
   <v>       0.00000000       0.05263158       0.00000000 </v>
   <v>       0.00000000       0.02631579       0.00000000 </v>
   <v>       0.00000000       0.00000000       0.00000000 </v>
  </varray>
  <varray name="weights" >
   <v>       0.00833333 </v>
   <v>       0.00833333 </v>
   <v>       0.00833333 </v>
   <v>       0.00833333 </v>
   <v>       0.00833333 </v>
   <v>       0.00833333 </v>
   <v>       0.00833333 </v>
   <v>       0.00833333 </v>
   <v>       0.00833333 </v>
   <v>       0.00833333 </v>
   <v>       0.00833333 </v>
   <v>       0.00833333 </v>
   <v>       0.00833333 </v>
   <v>       0.00833333 </v>
   <v>       0.00833333 </v>
   <v>       0.00833333 </v>
   <v>       0.00833333 </v>
   <v>       0.00833333 </v>
   <v>       0.00833333 </v>
   <v>       0.00833333 </v>
   <v>       0.00833333 </v>
   <v>       0.00833333 </v>
   <v>       0.00833333 </v>
   <v>       0.00833333 </v>
   <v>       0.00833333 </v>
   <v>       0.00833333 </v>
   <v>       0.00833333 </v>
   <v>       0.00833333 </v>
   <v>       0.00833333 </v>
   <v>       0.00833333 </v>
   <v>       0.00833333 </v>
   <v>       0.00833333 </v>
   <v>       0.00833333 </v>
   <v>       0.00833333 </v>
   <v>       0.00833333 </v>
   <v>       0.00833333 </v>
   <v>       0.00833333 </v>
   <v>       0.00833333 </v>
   <v>       0.00833333 </v>
   <v>       0.00833333 </v>
   <v>       0.00833333 </v>
   <v>       0.00833333 </v>
   <v>       0.00833333 </v>
   <v>       0.00833333 </v>
   <v>       0.00833333 </v>
   <v>       0.00833333 </v>
   <v>       0.00833333 </v>
   <v>       0.00833333 </v>
   <v>       0.00833333 </v>
   <v>       0.00833333 </v>
   <v>       0.00833333 </v>
   <v>       0.00833333 </v>
   <v>       0.00833333 </v>
   <v>       0.00833333 </v>
   <v>       0.00833333 </v>
   <v>       0.00833333 </v>
   <v>       0.00833333 </v>
   <v>       0.00833333 </v>
   <v>       0.00833333 </v>
   <v>       0.00833333 </v>
   <v>       0.00833333 </v>
   <v>       0.00833333 </v>
   <v>       0.00833333 </v>
   <v>       0.00833333 </v>
   <v>       0.00833333 </v>
   <v>       0.00833333 </v>
   <v>       0.00833333 </v>
   <v>       0.00833333 </v>
   <v>       0.00833333 </v>
   <v>       0.00833333 </v>
   <v>       0.00833333 </v>
   <v>       0.00833333 </v>
   <v>       0.00833333 </v>
   <v>       0.00833333 </v>
   <v>       0.00833333 </v>
   <v>       0.00833333 </v>
   <v>       0.00833333 </v>
   <v>       0.00833333 </v>
   <v>       0.00833333 </v>
   <v>       0.00833333 </v>
   <v>       0.00833333 </v>
   <v>       0.00833333 </v>
   <v>       0.00833333 </v>
   <v>       0.00833333 </v>
   <v>       0.00833333 </v>
   <v>       0.00833333 </v>
   <v>       0.00833333 </v>
   <v>       0.00833333 </v>
   <v>       0.00833333 </v>
   <v>       0.00833333 </v>
   <v>       0.00833333 </v>
   <v>       0.00833333 </v>
   <v>       0.00833333 </v>
   <v>       0.00833333 </v>
   <v>       0.00833333 </v>
   <v>       0.00833333 </v>
   <v>       0.00833333 </v>
   <v>       0.00833333 </v>
   <v>       0.00833333 </v>
   <v>       0.00833333 </v>
   <v>       0.00833333 </v>
   <v>       0.00833333 </v>
   <v>       0.00833333 </v>
   <v>       0.00833333 </v>
   <v>       0.00833333 </v>
   <v>       0.00833333 </v>
   <v>       0.00833333 </v>
   <v>       0.00833333 </v>
   <v>       0.00833333 </v>
   <v>       0.00833333 </v>
   <v>       0.00833333 </v>
   <v>       0.00833333 </v>
   <v>       0.00833333 </v>
   <v>       0.00833333 </v>
   <v>       0.00833333 </v>
   <v>       0.00833333 </v>
   <v>       0.00833333 </v>
   <v>       0.00833333 </v>
   <v>       0.00833333 </v>
   <v>       0.00833333 </v>
  </varray>
 </kpoints>
 <parameters>
  <separator name="general" >
   <i type="string" name="SYSTEM">Simulation for cell shape cell volume r</i>
   <i type="logical" name="LCOMPAT"> F  </i>
  </separator>
  <separator name="electronic" >
   <i type="string" name="PREC">high</i>
   <i name="ENMAX">    500.00000000</i>
   <i name="ENAUG">    644.87300000</i>
   <i name="EDIFF">      0.00001000</i>
   <i type="int" name="IALGO">    38</i>
   <i type="int" name="IWAVPR">    10</i>
   <i type="int" name="NBANDS">   192</i>
   <i name="NELECT">    288.00000000</i>
   <i type="int" name="TURBO">     0</i>
   <i type="int" name="IRESTART">     0</i>
   <i type="int" name="NREBOOT">     0</i>
   <i type="int" name="NMIN">     0</i>
   <i name="EREF">      0.00000000</i>
   <separator name="electronic smearing" >
    <i type="int" name="ISMEAR">     0</i>
    <i name="SIGMA">      0.01000000</i>
    <i name="KSPACING">      0.50000000</i>
    <i type="logical" name="KGAMMA"> T  </i>
   </separator>
   <separator name="electronic projectors" >
    <i type="logical" name="LREAL"> T  </i>
    <v name="ROPT">     -0.00040000     -0.00040000     -0.00040000</v>
    <i type="int" name="LMAXPAW">  -100</i>
    <i type="int" name="LMAXMIX">     2</i>
    <i type="logical" name="NLSPLINE"> F  </i>
   </separator>
   <separator name="electronic startup" >
    <i type="int" name="ISTART">     1</i>
    <i type="int" name="ICHARG">    11</i>
    <i type="int" name="INIWAV">     1</i>
   </separator>
   <separator name="electronic spin" >
    <i type="int" name="ISPIN">     1</i>
    <i type="logical" name="LNONCOLLINEAR"> F  </i>
    <v name="MAGMOM">      1.00000000      1.00000000      1.00000000      1.00000000      1.00000000      1.00000000      1.00000000      1.00000000      1.00000000      1.00000000      1.00000000      1.00000000      1.00000000      1.00000000      1.00000000      1.00000000      1.00000000      1.00000000      1.00000000      1.00000000
      1.00000000      1.00000000      1.00000000      1.00000000      1.00000000      1.00000000      1.00000000      1.00000000      1.00000000      1.00000000      1.00000000      1.00000000      1.00000000      1.00000000      1.00000000      1.00000000      1.00000000      1.00000000      1.00000000      1.00000000
      1.00000000      1.00000000      1.00000000      1.00000000      1.00000000      1.00000000      1.00000000      1.00000000      1.00000000      1.00000000      1.00000000      1.00000000      1.00000000      1.00000000      1.00000000      1.00000000      1.00000000      1.00000000      1.00000000      1.00000000
      1.00000000      1.00000000      1.00000000      1.00000000      1.00000000      1.00000000      1.00000000      1.00000000      1.00000000      1.00000000      1.00000000      1.00000000      1.00000000      1.00000000      1.00000000      1.00000000      1.00000000      1.00000000      1.00000000      1.00000000
      1.00000000      1.00000000      1.00000000      1.00000000      1.00000000      1.00000000      1.00000000      1.00000000      1.00000000      1.00000000      1.00000000      1.00000000      1.00000000      1.00000000</v>
    <i name="NUPDOWN">     -1.00000000</i>
    <i type="logical" name="LSORBIT"> F  </i>
    <v name="SAXIS">      0.00000000      0.00000000      1.00000000</v>
    <i type="logical" name="LSPIRAL"> F  </i>
    <v name="QSPIRAL">      0.00000000      0.00000000      0.00000000</v>
    <i type="logical" name="LZEROZ"> F  </i>
   </separator>
   <separator name="electronic exchange-correlation" >
    <i type="logical" name="LASPH"> F  </i>
    <i type="logical" name="LMETAGGA"> F  </i>
   </separator>
   <separator name="electronic convergence" >
    <i type="int" name="NELM">   200</i>
    <i type="int" name="NELMDL">     0</i>
    <i type="int" name="NELMIN">     2</i>
    <i name="ENINI">    500.00000000</i>
    <separator name="electronic convergence detail" >
     <i type="logical" name="LDIAG"> T  </i>
     <i type="logical" name="LSUBROT"> F  </i>
     <i name="WEIMIN">      0.00000000</i>
     <i name="EBREAK">      0.00000001</i>
     <i name="DEPER">      0.30000000</i>
     <i type="int" name="NRMM">     4</i>
     <i name="TIME">      0.40000000</i>
    </separator>
   </separator>
   <separator name="electronic mixer" >
    <i name="AMIX">      0.40000000</i>
    <i name="BMIX">      1.00000000</i>
    <i name="AMIN">      0.10000000</i>
    <i name="AMIX_MAG">      1.60000000</i>
    <i name="BMIX_MAG">      1.00000000</i>
    <separator name="electronic mixer details" >
     <i type="int" name="IMIX">     4</i>
     <i type="logical" name="MIXFIRST"> F  </i>
     <i type="int" name="MAXMIX">   -45</i>
     <i name="WC">    100.00000000</i>
     <i type="int" name="INIMIX">     1</i>
     <i type="int" name="MIXPRE">     1</i>
     <i type="int" name="MREMOVE">     5</i>
    </separator>
   </separator>
   <separator name="electronic dipolcorrection" >
    <i type="logical" name="LDIPOL"> F  </i>
    <i type="logical" name="LMONO"> F  </i>
    <i type="int" name="IDIPOL">     0</i>
    <i name="EPSILON">      1.00000000</i>
    <v name="DIPOL">   -100.00000000   -100.00000000   -100.00000000</v>
    <i name="EFIELD">      0.00000000</i>
   </separator>
  </separator>
  <separator name="grids" >
   <i type="int" name="NGX">   112</i>
   <i type="int" name="NGY">   192</i>
   <i type="int" name="NGZ">   150</i>
   <i type="int" name="NGXF">   168</i>
   <i type="int" name="NGYF">   280</i>
   <i type="int" name="NGZF">   224</i>
   <i type="logical" name="ADDGRID"> F  </i>
  </separator>
  <separator name="ionic" >
   <i type="int" name="NSW">     0</i>
   <i type="int" name="IBRION">    -1</i>
   <i type="int" name="MDALGO">     0</i>
   <i type="int" name="ISIF">     2</i>
   <i name="PSTRESS">      0.00000000</i>
   <i name="EDIFFG">     -0.01000000</i>
   <i type="int" name="NFREE">     0</i>
   <i name="POTIM">      0.30000000</i>
   <i name="SMASS">     -3.00000000</i>
   <i name="SCALEE">      1.00000000</i>
  </separator>
  <separator name="ionic md" >
   <i name="TEBEG">      0.00010000</i>
   <i name="TEEND">      0.00010000</i>
   <i type="int" name="NBLOCK">     1</i>
   <i type="int" name="KBLOCK">     1</i>
   <i type="int" name="NPACO">   256</i>
   <i name="APACO">     16.00000000</i>
  </separator>
  <separator name="symmetry" >
   <i type="int" name="ISYM">     2</i>
   <i name="SYMPREC">      0.00001000</i>
  </separator>
  <separator name="dos" >
   <i type="int" name="LORBIT">     0</i>
   <v name="RWIGS">     -1.00000000     -1.00000000     -1.00000000</v>
   <i type="int" name="NEDOS">   301</i>
   <i name="EMIN">     10.00000000</i>
   <i name="EMAX">    -10.00000000</i>
   <i name="EFERMI">      0.00000000</i>
  </separator>
  <separator name="writing" >
   <i type="int" name="NWRITE">     0</i>
   <i type="logical" name="LWAVE"> F  </i>
   <i type="logical" name="LDOWNSAMPLE"> F  </i>
   <i type="logical" name="LCHARG"> F  </i>
   <i type="logical" name="LPARD"> F  </i>
   <i type="logical" name="LVTOT"> F  </i>
   <i type="logical" name="LVHAR"> F  </i>
   <i type="logical" name="LELF"> F  </i>
   <i type="logical" name="LOPTICS"> F  </i>
   <v name="STM">      0.00000000      0.00000000      0.00000000      0.00000000      0.00000000      0.00000000      0.00000000</v>
  </separator>
  <separator name="performance" >
   <i type="int" name="NPAR">    16</i>
   <i type="int" name="NSIM">     4</i>
   <i type="int" name="NBLK">    -1</i>
   <i type="logical" name="LPLANE"> T  </i>
   <i type="logical" name="LSCALAPACK"> T  </i>
   <i type="logical" name="LSCAAWARE"> F  </i>
   <i type="logical" name="LSCALU"> F  </i>
   <i type="logical" name="LASYNC"> F  </i>
   <i type="logical" name="LORBITALREAL"> F  </i>
  </separator>
  <separator name="miscellaneous" >
   <i type="int" name="IDIOT">     3</i>
   <i type="int" name="ISPECIAL">     0</i>
   <i type="logical" name="LMUSIC"> F  </i>
   <v name="POMASS">     12.01100000     14.00100000      1.00000000</v>
   <v name="DARWINR">      0.00000000      0.00000000      0.00000000</v>
   <v name="DARWINV">      1.00000000      1.00000000      1.00000000</v>
   <i type="logical" name="LCORR"> T  </i>
  </separator>
  <i type="logical" name="GGA_COMPAT"> T  </i>
  <i type="logical" name="LBERRY"> F  </i>
  <i type="int" name="ICORELEVEL">     0</i>
  <i type="logical" name="LDAU"> F  </i>
  <i type="int" name="I_CONSTRAINED_M">     0</i>
  <separator name="electronic exchange-correlation" >
   <i type="string" name="GGA">PE</i>
   <i type="int" name="VOSKOWN">     0</i>
   <i type="logical" name="LHFCALC"> F  </i>
   <i type="string" name="PRECFOCK"></i>
   <i type="logical" name="LSYMGRAD"> F  </i>
   <i type="logical" name="LHFONE"> F  </i>
   <i type="logical" name="LRHFCALC"> F  </i>
   <i type="logical" name="LTHOMAS"> F  </i>
   <i type="logical" name="LMODELHF"> F  </i>
   <i name="ENCUT4O">     -1.00000000</i>
   <i type="int" name="EXXOEP">     0</i>
   <i type="int" name="FOURORBIT">     0</i>
   <i name="AEXX">      0.00000000</i>
   <i name="HFALPHA">      0.00000000</i>
   <i name="MCALPHA">      0.00000000</i>
   <i name="ALDAX">      1.00000000</i>
   <i name="AGGAX">      1.00000000</i>
   <i name="ALDAC">      1.00000000</i>
   <i name="AGGAC">      1.00000000</i>
   <i type="int" name="NKREDX">     1</i>
   <i type="int" name="NKREDY">     1</i>
   <i type="int" name="NKREDZ">     1</i>
   <i type="logical" name="SHIFTRED"> F  </i>
   <i type="logical" name="ODDONLY"> F  </i>
   <i type="logical" name="EVENONLY"> F  </i>
   <i type="int" name="LMAXFOCK">     0</i>
   <i type="int" name="NMAXFOCKAE">     0</i>
   <i type="logical" name="LFOCKAEDFT"> F  </i>
   <i name="HFSCREEN">      0.00000000</i>
   <i name="HFSCREENC">      0.00000000</i>
   <i type="int" name="NBANDSGWLOW">     0</i>
  </separator>
  <separator name="vdW DFT" >
   <i type="logical" name="LUSE_VDW"> F  </i>
   <i name="Zab_VDW">     -0.84910000</i>
   <i name="PARAM1">      0.12340000</i>
   <i name="PARAM2">      1.00000000</i>
   <i name="PARAM3">      0.00000000</i>
  </separator>
  <separator name="model GW" >
   <i type="int" name="MODEL_GW">     0</i>
   <i name="MODEL_EPS0">     47.97147483</i>
   <i name="MODEL_ALPHA">      1.00000000</i>
  </separator>
  <separator name="linear response parameters" >
   <i type="logical" name="LEPSILON"> F  </i>
   <i type="logical" name="LRPA"> F  </i>
   <i type="logical" name="LNABLA"> F  </i>
   <i type="logical" name="LVEL"> F  </i>
   <i type="int" name="KINTER">     0</i>
   <i name="CSHIFT">      0.10000000</i>
   <i name="OMEGAMAX">     -1.00000000</i>
   <i name="DEG_THRESHOLD">      0.00200000</i>
   <i name="RTIME">     -0.10000000</i>
   <i name="WPLASMAI">      0.00000000</i>
   <v name="DFIELD">      0.00000000      0.00000000      0.00000000</v>
   <v name="WPLASMA">      0.00000000      0.00000000      0.00000000      0.00000000      0.00000000      0.00000000      0.00000000      0.00000000      0.00000000</v>
  </separator>
  <separator name="orbital magnetization" >
   <i type="logical" name="NUCIND"> F  </i>
   <v name="MAGPOS">      0.00000000      0.00000000      0.00000000</v>
   <i type="logical" name="LNICSALL"> T  </i>
   <i type="logical" name="ORBITALMAG"> F  </i>
   <i type="logical" name="LMAGBLOCH"> F  </i>
   <i type="logical" name="LCHIMAG"> F  </i>
   <i type="logical" name="LGAUGE"> T  </i>
   <i type="int" name="MAGATOM">     0</i>
   <v name="MAGDIPOL">      0.00000000      0.00000000      0.00000000</v>
   <v name="AVECCONST">      0.00000000      0.00000000      0.00000000</v>
  </separator>
  <separator name="response functions" >
   <i type="logical" name="LADDER"> F  </i>
   <i type="logical" name="LRPAFORCE"> F  </i>
   <i type="logical" name="LFXC"> F  </i>
   <i type="logical" name="LHARTREE"> T  </i>
   <i type="int" name="IBSE">     0</i>
   <v type="int" name="KPOINT">    -1     0     0     0</v>
   <i type="logical" name="LTCTE"> F  </i>
   <i type="logical" name="LTETE"> F  </i>
   <i type="logical" name="LTRIPLET"> F  </i>
   <i type="logical" name="LFXCEPS"> F  </i>
   <i type="logical" name="LFXHEG"> F  </i>
   <i type="int" name="NATURALO">     2</i>
   <i type="logical" name="L2ORDER"> F  </i>
   <i type="logical" name="LMP2LT"> F  </i>
   <i type="logical" name="LUSEW"> F  </i>
   <i name="ENCUTGW">     -2.00000000</i>
   <i name="ENCUTGWSOFT">     -2.00000000</i>
   <i name="ENCUTLF">     -1.00000000</i>
   <i type="int" name="LMAXMP2">    -1</i>
   <i name="SCISSOR">      0.00000000</i>
   <i type="int" name="NOMEGA">     0</i>
   <i type="int" name="NOMEGAR">     0</i>
   <i type="int" name="NBANDSGW">    -1</i>
   <i type="int" name="NBANDSO">    -1</i>
   <i type="int" name="NBANDSV">    -1</i>
   <i type="int" name="NELM">   200</i>
   <i type="int" name="NELMHF">     1</i>
   <i type="int" name="DIM">     3</i>
   <i type="int" name="ANTIRES">     0</i>
   <i name="OMEGAMAX">    -30.00000000</i>
   <i name="OMEGAMIN">    -30.00000000</i>
   <i name="OMEGATL">   -200.00000000</i>
   <i type="int" name="OMEGAGRID">   140</i>
   <i name="CSHIFT">     -0.10000000</i>
   <i type="logical" name="SELFENERGY"> F  </i>
   <i type="logical" name="LSPECTRAL"> F  </i>
   <i type="logical" name="LSPECTRALGW"> F  </i>
   <i type="logical" name="LSINGLES"> F  </i>
   <i type="logical" name="LFERMIGW"> F  </i>
   <i type="logical" name="ODDONLYGW"> F  </i>
   <i type="logical" name="EVENONLYGW"> F  </i>
   <i type="int" name="NKREDLFX">     1</i>
   <i type="int" name="NKREDLFY">     1</i>
   <i type="int" name="NKREDLFZ">     1</i>
   <i type="int" name="MAXMEM">  2800</i>
   <i type="int" name="TELESCOPE">     0</i>
   <i type="int" name="TAUPAR">     1</i>
   <i type="int" name="OMEGAPAR">    -1</i>
   <i name="LAMBDA">      1.00000000</i>
  </separator>
  <separator name="External order field" >
   <i name="OFIELD_KAPPA">      0.00000000</i>
   <v name="OFIELD_K">      0.00000000      0.00000000      0.00000000</v>
   <i name="OFIELD_Q6_NEAR">      0.00000000</i>
   <i name="OFIELD_Q6_FAR">      0.00000000</i>
   <i name="OFIELD_A">      0.00000000</i>
  </separator>
  <separator name="solvation model" >
   <i type="logical" name="LSOL"> F  </i>
  </separator>
 </parameters>
 <atominfo>
  <atoms>      94 </atoms>
  <types>       3 </types>
  <array name="atoms" >
   <dimension dim="1">ion</dimension>
   <field type="string">element</field>
   <field type="int">atomtype</field>
   <set>
    <rc><c>C </c><c>   1</c></rc>
    <rc><c>C </c><c>   1</c></rc>
    <rc><c>C </c><c>   1</c></rc>
    <rc><c>C </c><c>   1</c></rc>
    <rc><c>C </c><c>   1</c></rc>
    <rc><c>C </c><c>   1</c></rc>
    <rc><c>C </c><c>   1</c></rc>
    <rc><c>C </c><c>   1</c></rc>
    <rc><c>C </c><c>   1</c></rc>
    <rc><c>C </c><c>   1</c></rc>
    <rc><c>C </c><c>   1</c></rc>
    <rc><c>C </c><c>   1</c></rc>
    <rc><c>C </c><c>   1</c></rc>
    <rc><c>C </c><c>   1</c></rc>
    <rc><c>C </c><c>   1</c></rc>
    <rc><c>C </c><c>   1</c></rc>
    <rc><c>C </c><c>   1</c></rc>
    <rc><c>C </c><c>   1</c></rc>
    <rc><c>C </c><c>   1</c></rc>
    <rc><c>C </c><c>   1</c></rc>
    <rc><c>C </c><c>   1</c></rc>
    <rc><c>C </c><c>   1</c></rc>
    <rc><c>C </c><c>   1</c></rc>
    <rc><c>C </c><c>   1</c></rc>
    <rc><c>C </c><c>   1</c></rc>
    <rc><c>C </c><c>   1</c></rc>
    <rc><c>C </c><c>   1</c></rc>
    <rc><c>C </c><c>   1</c></rc>
    <rc><c>C </c><c>   1</c></rc>
    <rc><c>C </c><c>   1</c></rc>
    <rc><c>C </c><c>   1</c></rc>
    <rc><c>C </c><c>   1</c></rc>
    <rc><c>C </c><c>   1</c></rc>
    <rc><c>C </c><c>   1</c></rc>
    <rc><c>C </c><c>   1</c></rc>
    <rc><c>C </c><c>   1</c></rc>
    <rc><c>C </c><c>   1</c></rc>
    <rc><c>C </c><c>   1</c></rc>
    <rc><c>C </c><c>   1</c></rc>
    <rc><c>C </c><c>   1</c></rc>
    <rc><c>C </c><c>   1</c></rc>
    <rc><c>C </c><c>   1</c></rc>
    <rc><c>C </c><c>   1</c></rc>
    <rc><c>C </c><c>   1</c></rc>
    <rc><c>C </c><c>   1</c></rc>
    <rc><c>C </c><c>   1</c></rc>
    <rc><c>C </c><c>   1</c></rc>
    <rc><c>C </c><c>   1</c></rc>
    <rc><c>C </c><c>   1</c></rc>
    <rc><c>C </c><c>   1</c></rc>
    <rc><c>C </c><c>   1</c></rc>
    <rc><c>C </c><c>   1</c></rc>
    <rc><c>C </c><c>   1</c></rc>
    <rc><c>C </c><c>   1</c></rc>
    <rc><c>N </c><c>   2</c></rc>
    <rc><c>N </c><c>   2</c></rc>
    <rc><c>N </c><c>   2</c></rc>
    <rc><c>N </c><c>   2</c></rc>
    <rc><c>N </c><c>   2</c></rc>
    <rc><c>N </c><c>   2</c></rc>
    <rc><c>N </c><c>   2</c></rc>
    <rc><c>N </c><c>   2</c></rc>
    <rc><c>H </c><c>   3</c></rc>
    <rc><c>H </c><c>   3</c></rc>
    <rc><c>H </c><c>   3</c></rc>
    <rc><c>H </c><c>   3</c></rc>
    <rc><c>H </c><c>   3</c></rc>
    <rc><c>H </c><c>   3</c></rc>
    <rc><c>H </c><c>   3</c></rc>
    <rc><c>H </c><c>   3</c></rc>
    <rc><c>H </c><c>   3</c></rc>
    <rc><c>H </c><c>   3</c></rc>
    <rc><c>H </c><c>   3</c></rc>
    <rc><c>H </c><c>   3</c></rc>
    <rc><c>H </c><c>   3</c></rc>
    <rc><c>H </c><c>   3</c></rc>
    <rc><c>H </c><c>   3</c></rc>
    <rc><c>H </c><c>   3</c></rc>
    <rc><c>H </c><c>   3</c></rc>
    <rc><c>H </c><c>   3</c></rc>
    <rc><c>H </c><c>   3</c></rc>
    <rc><c>H </c><c>   3</c></rc>
    <rc><c>H </c><c>   3</c></rc>
    <rc><c>H </c><c>   3</c></rc>
    <rc><c>H </c><c>   3</c></rc>
    <rc><c>H </c><c>   3</c></rc>
    <rc><c>H </c><c>   3</c></rc>
    <rc><c>H </c><c>   3</c></rc>
    <rc><c>H </c><c>   3</c></rc>
    <rc><c>H </c><c>   3</c></rc>
    <rc><c>H </c><c>   3</c></rc>
    <rc><c>H </c><c>   3</c></rc>
    <rc><c>H </c><c>   3</c></rc>
    <rc><c>H </c><c>   3</c></rc>
   </set>
  </array>
  <array name="atomtypes" >
   <dimension dim="1">type</dimension>
   <field type="int">atomspertype</field>
   <field type="string">element</field>
   <field>mass</field>
   <field>valence</field>
   <field type="string">pseudopotential</field>
   <set>
    <rc><c>  54</c><c>C </c><c>     12.01100000</c><c>      4.00000000</c><c>  PAW_PBE C 08Apr2002                   </c></rc>
    <rc><c>   8</c><c>N </c><c>     14.00100000</c><c>      5.00000000</c><c>  PAW_PBE N 08Apr2002                   </c></rc>
    <rc><c>  32</c><c>H </c><c>      1.00000000</c><c>      1.00000000</c><c>  PAW_PBE H 15Jun2001                   </c></rc>
   </set>
  </array>
 </atominfo>
 <structure name="initialpos" >
  <crystal>
   <varray name="basis" >
    <v>      14.91281776       0.03149817       0.00000000 </v>
    <v>       0.06719248      25.19836797       0.00000000 </v>
    <v>       1.02387028       0.58407687      20.00000000 </v>
   </varray>
   <i name="volume">   7515.53105671 </i>
   <varray name="rec_basis" >
    <v>       0.06705679      -0.00017881      -0.00342765 </v>
    <v>      -0.00008382       0.03968533      -0.00115467 </v>
    <v>       0.00000000       0.00000000       0.05000000 </v>
   </varray>
  </crystal>
  <varray name="positions" >
   <v>       0.03451734       0.02051462       0.49439478 </v>
   <v>       0.95396876       0.04968016       0.49481476 </v>
   <v>       0.95098820       0.10501373       0.48710296 </v>
   <v>       0.03278385       0.13369854       0.47704902 </v>
   <v>       0.11522882       0.10587703       0.48393378 </v>
   <v>       0.11387420       0.05048847       0.49133680 </v>
   <v>       0.03594986       0.96168164       0.49458469 </v>
   <v>       0.95700939       0.93183298       0.49167326 </v>
   <v>       0.95669219       0.87675026       0.48463203 </v>
   <v>       0.04007759       0.84921255       0.47807286 </v>
   <v>       0.12053241       0.87749910       0.48780972 </v>
   <v>       0.11645340       0.93251580       0.49515418 </v>
   <v>       0.61510612       0.76754442       0.49444648 </v>
   <v>       0.53774330       0.69053107       0.51428702 </v>
   <v>       0.46261441       0.76843495       0.49882657 </v>
   <v>       0.53690679       0.63199305       0.52175035 </v>
   <v>       0.61583400       0.60256107       0.50881384 </v>
   <v>       0.61409816       0.54740287       0.51173769 </v>
   <v>       0.53398555       0.51955156       0.52856519 </v>
   <v>       0.45572083       0.54949395       0.54318146 </v>
   <v>       0.45685391       0.60465093       0.53929958 </v>
   <v>       0.70185142       0.79574919       0.48991484 </v>
   <v>       0.77573015       0.77306339       0.52103717 </v>
   <v>       0.85748707       0.79929688       0.51926349 </v>
   <v>       0.86981587       0.84845125       0.48450583 </v>
   <v>       0.79544543       0.87055159       0.45280268 </v>
   <v>       0.71248227       0.84520492       0.45637425 </v>
   <v>       0.37638972       0.79732302       0.49636393 </v>
   <v>       0.36979376       0.84674597       0.46269329 </v>
   <v>       0.28697721       0.87211769       0.45878165 </v>
   <v>       0.20838637       0.84993296       0.48999468 </v>
   <v>       0.21661862       0.80115763       0.52560630 </v>
   <v>       0.29858915       0.77500952       0.52797933 </v>
   <v>       0.45545642       0.21460795       0.49424947 </v>
   <v>       0.53005019       0.29066095       0.51433860 </v>
   <v>       0.60738489       0.21354096       0.49868607 </v>
   <v>       0.52987958       0.34881446       0.52196227 </v>
   <v>       0.45280335       0.37884682       0.50884880 </v>
   <v>       0.45416731       0.43387260       0.51166171 </v>
   <v>       0.53190844       0.46093620       0.52863425 </v>
   <v>       0.60806078       0.43030953       0.54351558 </v>
   <v>       0.60746041       0.37532633       0.53970023 </v>
   <v>       0.36933665       0.18658584       0.48974196 </v>
   <v>       0.29109081       0.20780910       0.52077894 </v>
   <v>       0.20957736       0.18168420       0.51878335 </v>
   <v>       0.20213160       0.13416450       0.48395624 </v>
   <v>       0.28095975       0.11350023       0.45245397 </v>
   <v>       0.36340698       0.13867937       0.45618970 </v>
   <v>       0.69402267       0.18482831       0.49601497 </v>
   <v>       0.70522117       0.13704439       0.46216228 </v>
   <v>       0.78857190       0.11186207       0.45813506 </v>
   <v>       0.86290993       0.13255881       0.48933732 </v>
   <v>       0.84990957       0.17967014       0.52500993 </v>
   <v>       0.76757145       0.20566944       0.52755713 </v>
   <v>       0.03211330       0.18752713       0.46056553 </v>
   <v>       0.04293964       0.79601451       0.46215991 </v>
   <v>       0.61789132       0.71482597       0.50737945 </v>
   <v>       0.45830966       0.71593926       0.51337273 </v>
   <v>       0.53934670       0.79588598       0.48665448 </v>
   <v>       0.45086904       0.26672655       0.50716215 </v>
   <v>       0.60961663       0.26530659       0.51350409 </v>
   <v>       0.53233417       0.18667289       0.48643838 </v>
   <v>       0.98849220       0.78183086       0.44022295 </v>
   <v>       0.10250623       0.78236958       0.44269129 </v>
   <v>       0.08964526       0.20273040       0.43877817 </v>
   <v>       0.97518997       0.20207751       0.44117492 </v>
   <v>       0.17848301       0.03061989       0.49553371 </v>
   <v>       0.89182164       0.95152712       0.49564637 </v>
   <v>       0.91277368       0.78197073       0.54611656 </v>
   <v>       0.76720091       0.73496897       0.54773683 </v>
   <v>       0.80328361       0.90812963       0.42467468 </v>
   <v>       0.65519184       0.86308210       0.43242511 </v>
   <v>       0.43022790       0.86438043       0.43864831 </v>
   <v>       0.28246180       0.90955479       0.43033894 </v>
   <v>       0.30387609       0.73705451       0.55500789 </v>
   <v>       0.15759928       0.78391828       0.55216286 </v>
   <v>       0.39575234       0.62747423       0.54972589 </v>
   <v>       0.39324216       0.52913962       0.55835330 </v>
   <v>       0.67536897       0.52537291       0.49878039 </v>
   <v>       0.67782709       0.62377527       0.49490081 </v>
   <v>       0.15049631       0.19775864       0.54551639 </v>
   <v>       0.29584006       0.24463034       0.54757692 </v>
   <v>       0.27707487       0.07722714       0.42430635 </v>
   <v>       0.42407124       0.12194114       0.43232777 </v>
   <v>       0.64807734       0.12056118       0.43807756 </v>
   <v>       0.79700497       0.07576259       0.42964811 </v>
   <v>       0.75858769       0.24233002       0.55468111 </v>
   <v>       0.90535416       0.19566625       0.55151530 </v>
   <v>       0.66709017       0.35203658       0.55028764 </v>
   <v>       0.66840778       0.44998422       0.55873633 </v>
   <v>       0.39481204       0.45649369       0.49838241 </v>
   <v>       0.39278329       0.35826405       0.49483999 </v>
   <v>       0.88978854       0.02928157       0.50227889 </v>
   <v>       0.17961805       0.95262232       0.50239411 </v>
  </varray>
 </structure>
 <calculation>
  <scstep>
   <time name="dav">  416.37  420.47</time>
   <time name="total">  416.50  420.60</time>
   <energy>
    <i name="alphaZ">     52.09046388 </i>
    <i name="ewald">  31337.74001751 </i>
    <i name="hartreedc"> -39974.27623729 </i>
    <i name="XCdc">    990.93026987 </i>
    <i name="pawpsdc">  26800.23217133 </i>
    <i name="pawaedc"> -26849.26510572 </i>
    <i name="eentropy">     -0.00000000 </i>
    <i name="bandstr">  -3488.98958093 </i>
    <i name="atom">  10461.85932209 </i>
    <i name="e_fr_energy">   -669.67867926 </i>
    <i name="e_wo_entrp">   -669.67867926 </i>
    <i name="e_0_energy">   -669.67867926 </i>
   </energy>
  </scstep>
  <scstep>
   <time name="dav">  467.01  471.62</time>
   <time name="total">  467.01  471.63</time>
   <energy>
    <i name="e_fr_energy">   -670.53064595 </i>
    <i name="e_wo_entrp">   -670.53064595 </i>
    <i name="e_0_energy">   -670.53064595 </i>
   </energy>
  </scstep>
  <scstep>
   <time name="dav">  517.08  522.19</time>
   <time name="total">  517.08  522.19</time>
   <energy>
    <i name="e_fr_energy">   -670.55174901 </i>
    <i name="e_wo_entrp">   -670.55174901 </i>
    <i name="e_0_energy">   -670.55174901 </i>
   </energy>
  </scstep>
  <scstep>
   <time name="dav">  471.98  476.59</time>
   <time name="total">  471.99  476.59</time>
   <energy>
    <i name="e_fr_energy">   -670.55213400 </i>
    <i name="e_wo_entrp">   -670.55213400 </i>
    <i name="e_0_energy">   -670.55213400 </i>
   </energy>
  </scstep>
  <scstep>
   <time name="dav">  466.53  471.17</time>
   <time name="total">  466.53  471.18</time>
   <energy>
    <i name="e_fr_energy">   -670.55215056 </i>
    <i name="e_wo_entrp">   -670.55215056 </i>
    <i name="e_0_energy">   -670.55215056 </i>
   </energy>
  </scstep>
  <scstep>
   <time name="dav">  349.29  352.79</time>
   <time name="total">  349.30  352.79</time>
   <energy>
    <i name="alphaZ">     52.09046388 </i>
    <i name="ewald">  31337.74001751 </i>
    <i name="hartreedc"> -39974.27623729 </i>
    <i name="XCdc">    990.93026987 </i>
    <i name="pawpsdc">  26800.23217133 </i>
    <i name="pawaedc"> -26849.26510572 </i>
    <i name="eentropy">     -0.00000000 </i>
    <i name="bandstr">  -3489.86305261 </i>
    <i name="atom">  10461.85932209 </i>
    <i name="e_fr_energy">   -670.55215093 </i>
    <i name="e_wo_entrp">   -670.55215093 </i>
    <i name="e_0_energy">   -670.55215093 </i>
   </energy>
  </scstep>
  <structure>
   <crystal>
    <varray name="basis" >
     <v>      14.91281776       0.03149817       0.00000000 </v>
     <v>       0.06719248      25.19836797       0.00000000 </v>
     <v>       1.02387028       0.58407687      20.00000000 </v>
    </varray>
    <i name="volume">   7515.53105671 </i>
    <varray name="rec_basis" >
     <v>       0.06705679      -0.00017881      -0.00342765 </v>
     <v>      -0.00008382       0.03968533      -0.00115467 </v>
     <v>       0.00000000       0.00000000       0.05000000 </v>
    </varray>
   </crystal>
   <varray name="positions" >
    <v>       0.03451734       0.02051462       0.49439478 </v>
    <v>       0.95396876       0.04968016       0.49481476 </v>
    <v>       0.95098820       0.10501373       0.48710296 </v>
    <v>       0.03278385       0.13369854       0.47704902 </v>
    <v>       0.11522882       0.10587703       0.48393378 </v>
    <v>       0.11387420       0.05048847       0.49133680 </v>
    <v>       0.03594986       0.96168164       0.49458469 </v>
    <v>       0.95700939       0.93183298       0.49167326 </v>
    <v>       0.95669219       0.87675026       0.48463203 </v>
    <v>       0.04007759       0.84921255       0.47807286 </v>
    <v>       0.12053241       0.87749910       0.48780972 </v>
    <v>       0.11645340       0.93251580       0.49515418 </v>
    <v>       0.61510612       0.76754442       0.49444648 </v>
    <v>       0.53774330       0.69053107       0.51428702 </v>
    <v>       0.46261441       0.76843495       0.49882657 </v>
    <v>       0.53690679       0.63199305       0.52175035 </v>
    <v>       0.61583400       0.60256107       0.50881384 </v>
    <v>       0.61409816       0.54740287       0.51173769 </v>
    <v>       0.53398555       0.51955156       0.52856519 </v>
    <v>       0.45572083       0.54949395       0.54318146 </v>
    <v>       0.45685391       0.60465093       0.53929958 </v>
    <v>       0.70185142       0.79574919       0.48991484 </v>
    <v>       0.77573015       0.77306339       0.52103717 </v>
    <v>       0.85748707       0.79929688       0.51926349 </v>
    <v>       0.86981587       0.84845125       0.48450583 </v>
    <v>       0.79544543       0.87055159       0.45280268 </v>
    <v>       0.71248227       0.84520492       0.45637425 </v>
    <v>       0.37638972       0.79732302       0.49636393 </v>
    <v>       0.36979376       0.84674597       0.46269329 </v>
    <v>       0.28697721       0.87211769       0.45878165 </v>
    <v>       0.20838637       0.84993296       0.48999468 </v>
    <v>       0.21661862       0.80115763       0.52560630 </v>
    <v>       0.29858915       0.77500952       0.52797933 </v>
    <v>       0.45545642       0.21460795       0.49424947 </v>
    <v>       0.53005019       0.29066095       0.51433860 </v>
    <v>       0.60738489       0.21354096       0.49868607 </v>
    <v>       0.52987958       0.34881446       0.52196227 </v>
    <v>       0.45280335       0.37884682       0.50884880 </v>
    <v>       0.45416731       0.43387260       0.51166171 </v>
    <v>       0.53190844       0.46093620       0.52863425 </v>
    <v>       0.60806078       0.43030953       0.54351558 </v>
    <v>       0.60746041       0.37532633       0.53970023 </v>
    <v>       0.36933665       0.18658584       0.48974196 </v>
    <v>       0.29109081       0.20780910       0.52077894 </v>
    <v>       0.20957736       0.18168420       0.51878335 </v>
    <v>       0.20213160       0.13416450       0.48395624 </v>
    <v>       0.28095975       0.11350023       0.45245397 </v>
    <v>       0.36340698       0.13867937       0.45618970 </v>
    <v>       0.69402267       0.18482831       0.49601497 </v>
    <v>       0.70522117       0.13704439       0.46216228 </v>
    <v>       0.78857190       0.11186207       0.45813506 </v>
    <v>       0.86290993       0.13255881       0.48933732 </v>
    <v>       0.84990957       0.17967014       0.52500993 </v>
    <v>       0.76757145       0.20566944       0.52755713 </v>
    <v>       0.03211330       0.18752713       0.46056553 </v>
    <v>       0.04293964       0.79601451       0.46215991 </v>
    <v>       0.61789132       0.71482597       0.50737945 </v>
    <v>       0.45830966       0.71593926       0.51337273 </v>
    <v>       0.53934670       0.79588598       0.48665448 </v>
    <v>       0.45086904       0.26672655       0.50716215 </v>
    <v>       0.60961663       0.26530659       0.51350409 </v>
    <v>       0.53233417       0.18667289       0.48643838 </v>
    <v>       0.98849220       0.78183086       0.44022295 </v>
    <v>       0.10250623       0.78236958       0.44269129 </v>
    <v>       0.08964526       0.20273040       0.43877817 </v>
    <v>       0.97518997       0.20207751       0.44117492 </v>
    <v>       0.17848301       0.03061989       0.49553371 </v>
    <v>       0.89182164       0.95152712       0.49564637 </v>
    <v>       0.91277368       0.78197073       0.54611656 </v>
    <v>       0.76720091       0.73496897       0.54773683 </v>
    <v>       0.80328361       0.90812963       0.42467468 </v>
    <v>       0.65519184       0.86308210       0.43242511 </v>
    <v>       0.43022790       0.86438043       0.43864831 </v>
    <v>       0.28246180       0.90955479       0.43033894 </v>
    <v>       0.30387609       0.73705451       0.55500789 </v>
    <v>       0.15759928       0.78391828       0.55216286 </v>
    <v>       0.39575234       0.62747423       0.54972589 </v>
    <v>       0.39324216       0.52913962       0.55835330 </v>
    <v>       0.67536897       0.52537291       0.49878039 </v>
    <v>       0.67782709       0.62377527       0.49490081 </v>
    <v>       0.15049631       0.19775864       0.54551639 </v>
    <v>       0.29584006       0.24463034       0.54757692 </v>
    <v>       0.27707487       0.07722714       0.42430635 </v>
    <v>       0.42407124       0.12194114       0.43232777 </v>
    <v>       0.64807734       0.12056118       0.43807756 </v>
    <v>       0.79700497       0.07576259       0.42964811 </v>
    <v>       0.75858769       0.24233002       0.55468111 </v>
    <v>       0.90535416       0.19566625       0.55151530 </v>
    <v>       0.66709017       0.35203658       0.55028764 </v>
    <v>       0.66840778       0.44998422       0.55873633 </v>
    <v>       0.39481204       0.45649369       0.49838241 </v>
    <v>       0.39278329       0.35826405       0.49483999 </v>
    <v>       0.88978854       0.02928157       0.50227889 </v>
    <v>       0.17961805       0.95262232       0.50239411 </v>
   </varray>
  </structure>
  <varray name="forces" >
   <v>       0.00194362       0.00244116      -0.00214297 </v>
   <v>      -0.00243931      -0.00151796      -0.00313533 </v>
   <v>      -0.01146106      -0.00581481       0.00180229 </v>
   <v>      -0.00212449       0.01643641      -0.00210058 </v>
   <v>       0.01238025      -0.00911939       0.00184153 </v>
   <v>       0.00291518      -0.00268018      -0.00239347 </v>
   <v>      -0.00039129      -0.00156701      -0.00271516 </v>
   <v>      -0.00320916       0.00404037      -0.00315324 </v>
   <v>      -0.01145836       0.00584236       0.00016968 </v>
   <v>       0.00319492      -0.01299872      -0.00221991 </v>
   <v>       0.01069977       0.00795467       0.00120987 </v>
   <v>      -0.00088611      -0.00079341      -0.00387824 </v>
   <v>       0.00302826       0.00288093      -0.00374670 </v>
   <v>       0.00049856       0.00107248      -0.00030860 </v>
   <v>      -0.00106841       0.00158602      -0.00186143 </v>
   <v>       0.00054505       0.00346749       0.00259059 </v>
   <v>      -0.00321044       0.00017240       0.00502753 </v>
   <v>      -0.00068480      -0.00383918       0.00341851 </v>
   <v>       0.00051089      -0.00212123      -0.00058206 </v>
   <v>       0.00250514      -0.00049177       0.00186524 </v>
   <v>      -0.00023434       0.00077574       0.00375105 </v>
   <v>      -0.00495005      -0.00181970      -0.00004242 </v>
   <v>       0.00102349       0.00270168       0.00262630 </v>
   <v>      -0.00068490       0.00020217       0.00348555 </v>
   <v>       0.00144245      -0.00198003       0.00029731 </v>
   <v>      -0.00191036      -0.00028558       0.00507574 </v>
   <v>       0.00126215       0.00169030       0.00232150 </v>
   <v>       0.00078084       0.00027389      -0.00029811 </v>
   <v>      -0.00184263      -0.00183492      -0.00146988 </v>
   <v>      -0.00009186      -0.00108176       0.00153476 </v>
   <v>      -0.00033976      -0.00220890      -0.00030423 </v>
   <v>       0.00030547      -0.00003418      -0.00017926 </v>
   <v>       0.00092175      -0.00243735      -0.00017662 </v>
   <v>      -0.00062456      -0.00066104       0.00194397 </v>
   <v>       0.00598640      -0.00428651       0.00143314 </v>
   <v>       0.00023735      -0.00191527      -0.00102659 </v>
   <v>       0.00125858       0.00263504       0.00495391 </v>
   <v>       0.00169393       0.00309544       0.00317097 </v>
   <v>      -0.00056386       0.00287414      -0.00011297 </v>
   <v>      -0.00160694       0.00357523      -0.00201612 </v>
   <v>      -0.00431005       0.00295244      -0.00232289 </v>
   <v>      -0.00133304       0.00552881       0.00180152 </v>
   <v>       0.00449119       0.00274310      -0.00187322 </v>
   <v>       0.00245440      -0.00033351      -0.00124764 </v>
   <v>      -0.00153309       0.00156987       0.00133409 </v>
   <v>      -0.00148925      -0.00287039      -0.00125851 </v>
   <v>       0.00201220      -0.00003669       0.00124733 </v>
   <v>      -0.00009913       0.00026256      -0.00123792 </v>
   <v>      -0.00187022      -0.00071455      -0.00587314 </v>
   <v>      -0.00163449      -0.00065226      -0.00198569 </v>
   <v>       0.00106883       0.00129640       0.00271639 </v>
   <v>       0.00262112      -0.00110282      -0.00300541 </v>
   <v>      -0.00409236      -0.00206955      -0.00095743 </v>
   <v>      -0.00153131       0.00108028       0.00058623 </v>
   <v>       0.00519137      -0.01629376      -0.00193300 </v>
   <v>       0.00682218       0.01742190      -0.00436875 </v>
   <v>      -0.00275833       0.00021889      -0.00094345 </v>
   <v>      -0.00250495      -0.00197200       0.00239525 </v>
   <v>      -0.00659581      -0.00671791       0.00001223 </v>
   <v>       0.00322101       0.00124642       0.00870806 </v>
   <v>       0.00705328      -0.00443226      -0.00158855 </v>
   <v>       0.00125590       0.00529531       0.00075678 </v>
   <v>      -0.00409725      -0.00436569       0.00379428 </v>
   <v>       0.00081657      -0.00675059       0.00396356 </v>
   <v>      -0.00026978       0.00268575       0.00292364 </v>
   <v>      -0.00223194       0.00486823       0.00001156 </v>
   <v>      -0.00056438      -0.00184368      -0.00392010 </v>
   <v>       0.00177079       0.00138171      -0.00400289 </v>
   <v>       0.00365272      -0.00041246       0.00191515 </v>
   <v>       0.00067047       0.00297282       0.00282870 </v>
   <v>      -0.00038225      -0.00194570      -0.00376421 </v>
   <v>      -0.00031275      -0.00312266      -0.00027426 </v>
   <v>      -0.00380414      -0.00089185      -0.00269475 </v>
   <v>      -0.00255193       0.00011760      -0.00111931 </v>
   <v>       0.00154504       0.00169383      -0.00015580 </v>
   <v>       0.00253895       0.00009223       0.00197074 </v>
   <v>      -0.00392809       0.00152929       0.00317090 </v>
   <v>       0.00276380       0.00136013      -0.00304259 </v>
   <v>      -0.00119140       0.00016673      -0.00262207 </v>
   <v>       0.00004837       0.00087472       0.00207155 </v>
   <v>      -0.00307905       0.00100538       0.00143459 </v>
   <v>       0.00058999      -0.00215032      -0.00004846 </v>
   <v>      -0.00145490      -0.00096744      -0.00291874 </v>
   <v>      -0.00292333       0.00107936      -0.00009129 </v>
   <v>       0.00406731       0.00248005       0.00133175 </v>
   <v>      -0.00143095       0.00330280      -0.00126707 </v>
   <v>       0.00060968      -0.00184060       0.00034678 </v>
   <v>      -0.00120792      -0.00190540      -0.00189581 </v>
   <v>       0.00151708      -0.00500226       0.00024717 </v>
   <v>      -0.00112704      -0.00310056       0.00185410 </v>
   <v>       0.00030571       0.00111645       0.00248795 </v>
   <v>      -0.00125654      -0.00036420      -0.00092953 </v>
   <v>       0.00390396       0.00107460      -0.00435464 </v>
   <v>      -0.00277761       0.00021245      -0.00286873 </v>
  </varray>
  <varray name="stress" >
   <v>       0.01294238      -0.01994003      -0.00097244 </v>
   <v>      -0.01994003      -0.07984506       0.00678128 </v>
   <v>      -0.00097244       0.00678128      -0.23670785 </v>
  </varray>
  <energy>
   <i name="e_fr_energy">   -672.56230773 </i>
   <i name="e_wo_entrp">   -672.56230773 </i>
   <i name="e_0_energy">     -0.00000000 </i>
  </energy>
  <time name="totalsc"> 3143.86 3176.26</time>
  <eigenvalues>
   <array>
    <dimension dim="1">band</dimension>
    <dimension dim="2">kpoint</dimension>
    <dimension dim="3">spin</dimension>
    <field>eigene</field>
    <field>occ</field>
    <set>
     <set comment="spin 1">
      <set comment="kpoint 1">
       <r>  -24.8964    1.0000 </r>
       <r>  -24.8959    1.0000 </r>
       <r>  -22.7380    1.0000 </r>
       <r>  -22.7287    1.0000 </r>
       <r>  -21.9907    1.0000 </r>
       <r>  -21.9850    1.0000 </r>
       <r>  -21.9832    1.0000 </r>
       <r>  -21.9778    1.0000 </r>
       <r>  -21.2141    1.0000 </r>
       <r>  -21.0156    1.0000 </r>
       <r>  -20.9299    1.0000 </r>
       <r>  -20.9055    1.0000 </r>
       <r>  -20.9030    1.0000 </r>
       <r>  -20.6484    1.0000 </r>
       <r>  -20.6392    1.0000 </r>
       <r>  -20.1639    1.0000 </r>
       <r>  -19.2200    1.0000 </r>
       <r>  -19.1895    1.0000 </r>
       <r>  -19.1383    1.0000 </r>
       <r>  -18.8588    1.0000 </r>
       <r>  -18.4466    1.0000 </r>
       <r>  -18.2078    1.0000 </r>
       <r>  -18.0703    1.0000 </r>
       <r>  -18.0650    1.0000 </r>
       <r>  -18.0568    1.0000 </r>
       <r>  -18.0409    1.0000 </r>
       <r>  -17.9941    1.0000 </r>
       <r>  -17.8837    1.0000 </r>
       <r>  -17.8308    1.0000 </r>
       <r>  -17.6801    1.0000 </r>
       <r>  -17.5550    1.0000 </r>
       <r>  -16.8753    1.0000 </r>
       <r>  -16.5642    1.0000 </r>
       <r>  -16.2823    1.0000 </r>
       <r>  -16.0330    1.0000 </r>
       <r>  -15.9847    1.0000 </r>
       <r>  -15.3397    1.0000 </r>
       <r>  -15.1038    1.0000 </r>
       <r>  -14.8694    1.0000 </r>
       <r>  -14.8436    1.0000 </r>
       <r>  -14.7849    1.0000 </r>
       <r>  -14.7529    1.0000 </r>
       <r>  -14.6060    1.0000 </r>
       <r>  -14.4396    1.0000 </r>
       <r>  -14.4242    1.0000 </r>
       <r>  -14.3345    1.0000 </r>
       <r>  -14.1557    1.0000 </r>
       <r>  -13.9426    1.0000 </r>
       <r>  -13.6953    1.0000 </r>
       <r>  -13.5564    1.0000 </r>
       <r>  -13.4771    1.0000 </r>
       <r>  -13.3607    1.0000 </r>
       <r>  -12.9501    1.0000 </r>
       <r>  -12.9353    1.0000 </r>
       <r>  -12.7829    1.0000 </r>
       <r>  -12.7522    1.0000 </r>
       <r>  -12.7005    1.0000 </r>
       <r>  -12.4597    1.0000 </r>
       <r>  -12.2668    1.0000 </r>
       <r>  -12.2102    1.0000 </r>
       <r>  -12.1348    1.0000 </r>
       <r>  -11.7660    1.0000 </r>
       <r>  -11.6973    1.0000 </r>
       <r>  -11.5379    1.0000 </r>
       <r>  -11.3786    1.0000 </r>
       <r>  -11.0483    1.0000 </r>
       <r>  -10.9876    1.0000 </r>
       <r>  -10.9523    1.0000 </r>
       <r>  -10.8952    1.0000 </r>
       <r>  -10.8189    1.0000 </r>
       <r>  -10.7654    1.0000 </r>
       <r>  -10.6130    1.0000 </r>
       <r>  -10.6005    1.0000 </r>
       <r>  -10.5063    1.0000 </r>
       <r>  -10.4707    1.0000 </r>
       <r>  -10.4190    1.0000 </r>
       <r>  -10.3663    1.0000 </r>
       <r>  -10.2625    1.0000 </r>
       <r>  -10.2285    1.0000 </r>
       <r>  -10.1129    1.0000 </r>
       <r>  -10.0739    1.0000 </r>
       <r>  -10.0026    1.0000 </r>
       <r>   -9.9158    1.0000 </r>
       <r>   -9.8312    1.0000 </r>
       <r>   -9.7518    1.0000 </r>
       <r>   -9.7450    1.0000 </r>
       <r>   -9.7186    1.0000 </r>
       <r>   -9.6687    1.0000 </r>
       <r>   -9.6407    1.0000 </r>
       <r>   -9.6075    1.0000 </r>
       <r>   -9.5794    1.0000 </r>
       <r>   -9.3935    1.0000 </r>
       <r>   -9.2495    1.0000 </r>
       <r>   -9.1693    1.0000 </r>
       <r>   -9.0944    1.0000 </r>
       <r>   -8.9849    1.0000 </r>
       <r>   -8.9046    1.0000 </r>
       <r>   -8.8928    1.0000 </r>
       <r>   -8.8662    1.0000 </r>
       <r>   -8.8449    1.0000 </r>
       <r>   -8.6806    1.0000 </r>
       <r>   -8.6106    1.0000 </r>
       <r>   -8.5414    1.0000 </r>
       <r>   -8.3908    1.0000 </r>
       <r>   -8.3029    1.0000 </r>
       <r>   -8.2484    1.0000 </r>
       <r>   -8.1761    1.0000 </r>
       <r>   -8.1380    1.0000 </r>
       <r>   -8.1038    1.0000 </r>
       <r>   -8.0198    1.0000 </r>
       <r>   -7.8894    1.0000 </r>
       <r>   -7.8810    1.0000 </r>
       <r>   -7.8217    1.0000 </r>
       <r>   -7.8193    1.0000 </r>
       <r>   -7.7808    1.0000 </r>
       <r>   -7.7420    1.0000 </r>
       <r>   -7.6973    1.0000 </r>
       <r>   -7.5943    1.0000 </r>
       <r>   -7.5266    1.0000 </r>
       <r>   -7.4978    1.0000 </r>
       <r>   -7.4839    1.0000 </r>
       <r>   -7.4592    1.0000 </r>
       <r>   -7.2073    1.0000 </r>
       <r>   -6.7649    1.0000 </r>
       <r>   -6.3465    1.0000 </r>
       <r>   -6.3135    1.0000 </r>
       <r>   -6.2658    1.0000 </r>
       <r>   -6.0574    1.0000 </r>
       <r>   -6.0167    1.0000 </r>
       <r>   -5.9617    1.0000 </r>
       <r>   -5.9563    1.0000 </r>
       <r>   -5.9543    1.0000 </r>
       <r>   -5.9492    1.0000 </r>
       <r>   -5.9429    1.0000 </r>
       <r>   -5.8608    1.0000 </r>
       <r>   -5.5169    1.0000 </r>
       <r>   -5.5038    1.0000 </r>
       <r>   -5.4858    1.0000 </r>
       <r>   -5.4845    1.0000 </r>
       <r>   -5.2250    1.0000 </r>
       <r>   -5.1446    1.0000 </r>
       <r>   -5.0378    1.0000 </r>
       <r>   -4.7711    1.0000 </r>
       <r>   -3.9237    1.0000 </r>
       <r>   -2.5367    0.0000 </r>
       <r>   -2.3456    0.0000 </r>
       <r>   -2.2654    0.0000 </r>
       <r>   -2.0921    0.0000 </r>
       <r>   -1.4970    0.0000 </r>
       <r>   -1.1061    0.0000 </r>
       <r>   -1.0636    0.0000 </r>
       <r>   -0.9642    0.0000 </r>
       <r>   -0.8835    0.0000 </r>
       <r>   -0.8734    0.0000 </r>
       <r>   -0.8264    0.0000 </r>
       <r>   -0.7792    0.0000 </r>
       <r>   -0.7542    0.0000 </r>
       <r>   -0.7403    0.0000 </r>
       <r>   -0.5512    0.0000 </r>
       <r>   -0.2332    0.0000 </r>
       <r>   -0.1487    0.0000 </r>
       <r>   -0.0694    0.0000 </r>
       <r>    0.0340    0.0000 </r>
       <r>    0.2961    0.0000 </r>
       <r>    0.3289    0.0000 </r>
       <r>    0.3490    0.0000 </r>
       <r>    0.4200    0.0000 </r>
       <r>    0.5152    0.0000 </r>
       <r>    0.5481    0.0000 </r>
       <r>    0.6173    0.0000 </r>
       <r>    0.6297    0.0000 </r>
       <r>    0.6715    0.0000 </r>
       <r>    0.6858    0.0000 </r>
       <r>    0.7591    0.0000 </r>
       <r>    0.7665    0.0000 </r>
       <r>    0.8008    0.0000 </r>
       <r>    0.8232    0.0000 </r>
       <r>    0.9315    0.0000 </r>
       <r>    0.9822    0.0000 </r>
       <r>    0.9914    0.0000 </r>
       <r>    1.0481    0.0000 </r>
       <r>    1.0524    0.0000 </r>
       <r>    1.0860    0.0000 </r>
       <r>    1.1117    0.0000 </r>
       <r>    1.1446    0.0000 </r>
       <r>    1.1498    0.0000 </r>
       <r>    1.2473    0.0000 </r>
       <r>    1.3191    0.0000 </r>
       <r>    1.3543    0.0000 </r>
       <r>    1.3827    0.0000 </r>
       <r>    1.4933    0.0000 </r>
       <r>    1.5177    0.0000 </r>
      </set>
      <set comment="kpoint 2">
       <r>  -24.8964    1.0000 </r>
       <r>  -24.8959    1.0000 </r>
       <r>  -22.7380    1.0000 </r>
       <r>  -22.7287    1.0000 </r>
       <r>  -21.9907    1.0000 </r>
       <r>  -21.9850    1.0000 </r>
       <r>  -21.9832    1.0000 </r>
       <r>  -21.9778    1.0000 </r>
       <r>  -21.2141    1.0000 </r>
       <r>  -21.0155    1.0000 </r>
       <r>  -20.9303    1.0000 </r>
       <r>  -20.9058    1.0000 </r>
       <r>  -20.9027    1.0000 </r>
       <r>  -20.6484    1.0000 </r>
       <r>  -20.6389    1.0000 </r>
       <r>  -20.1638    1.0000 </r>
       <r>  -19.2200    1.0000 </r>
       <r>  -19.1893    1.0000 </r>
       <r>  -19.1381    1.0000 </r>
       <r>  -18.8591    1.0000 </r>
       <r>  -18.4471    1.0000 </r>
       <r>  -18.2078    1.0000 </r>
       <r>  -18.0713    1.0000 </r>
       <r>  -18.0652    1.0000 </r>
       <r>  -18.0560    1.0000 </r>
       <r>  -18.0407    1.0000 </r>
       <r>  -17.9939    1.0000 </r>
       <r>  -17.8841    1.0000 </r>
       <r>  -17.8320    1.0000 </r>
       <r>  -17.6789    1.0000 </r>
       <r>  -17.5536    1.0000 </r>
       <r>  -16.8758    1.0000 </r>
       <r>  -16.5639    1.0000 </r>
       <r>  -16.2821    1.0000 </r>
       <r>  -16.0372    1.0000 </r>
       <r>  -15.9805    1.0000 </r>
       <r>  -15.3418    1.0000 </r>
       <r>  -15.1027    1.0000 </r>
       <r>  -14.8844    1.0000 </r>
       <r>  -14.8278    1.0000 </r>
       <r>  -14.7966    1.0000 </r>
       <r>  -14.7437    1.0000 </r>
       <r>  -14.6033    1.0000 </r>
       <r>  -14.4385    1.0000 </r>
       <r>  -14.4310    1.0000 </r>
       <r>  -14.3282    1.0000 </r>
       <r>  -14.1548    1.0000 </r>
       <r>  -13.9430    1.0000 </r>
       <r>  -13.6952    1.0000 </r>
       <r>  -13.5571    1.0000 </r>
       <r>  -13.4778    1.0000 </r>
       <r>  -13.3606    1.0000 </r>
       <r>  -12.9501    1.0000 </r>
       <r>  -12.9348    1.0000 </r>
       <r>  -12.7831    1.0000 </r>
       <r>  -12.7519    1.0000 </r>
       <r>  -12.7009    1.0000 </r>
       <r>  -12.4599    1.0000 </r>
       <r>  -12.2674    1.0000 </r>
       <r>  -12.2104    1.0000 </r>
       <r>  -12.1350    1.0000 </r>
       <r>  -11.7808    1.0000 </r>
       <r>  -11.6818    1.0000 </r>
       <r>  -11.5394    1.0000 </r>
       <r>  -11.3783    1.0000 </r>
       <r>  -11.0462    1.0000 </r>
       <r>  -10.9891    1.0000 </r>
       <r>  -10.9508    1.0000 </r>
       <r>  -10.8958    1.0000 </r>
       <r>  -10.8183    1.0000 </r>
       <r>  -10.7651    1.0000 </r>
       <r>  -10.6124    1.0000 </r>
       <r>  -10.6003    1.0000 </r>
       <r>  -10.5066    1.0000 </r>
       <r>  -10.4705    1.0000 </r>
       <r>  -10.4191    1.0000 </r>
       <r>  -10.3667    1.0000 </r>
       <r>  -10.2625    1.0000 </r>
       <r>  -10.2285    1.0000 </r>
       <r>  -10.1131    1.0000 </r>
       <r>  -10.0743    1.0000 </r>
       <r>  -10.0027    1.0000 </r>
       <r>   -9.9159    1.0000 </r>
       <r>   -9.8315    1.0000 </r>
       <r>   -9.7516    1.0000 </r>
       <r>   -9.7450    1.0000 </r>
       <r>   -9.7186    1.0000 </r>
       <r>   -9.6687    1.0000 </r>
       <r>   -9.6406    1.0000 </r>
       <r>   -9.6075    1.0000 </r>
       <r>   -9.5801    1.0000 </r>
       <r>   -9.3947    1.0000 </r>
       <r>   -9.2493    1.0000 </r>
       <r>   -9.1693    1.0000 </r>
       <r>   -9.0946    1.0000 </r>
       <r>   -8.9843    1.0000 </r>
       <r>   -8.9052    1.0000 </r>
       <r>   -8.8933    1.0000 </r>
       <r>   -8.8655    1.0000 </r>
       <r>   -8.8444    1.0000 </r>
       <r>   -8.6807    1.0000 </r>
       <r>   -8.6121    1.0000 </r>
       <r>   -8.5404    1.0000 </r>
       <r>   -8.3916    1.0000 </r>
       <r>   -8.3024    1.0000 </r>
       <r>   -8.2482    1.0000 </r>
       <r>   -8.1764    1.0000 </r>
       <r>   -8.1375    1.0000 </r>
       <r>   -8.1036    1.0000 </r>
       <r>   -8.0198    1.0000 </r>
       <r>   -7.8898    1.0000 </r>
       <r>   -7.8815    1.0000 </r>
       <r>   -7.8213    1.0000 </r>
       <r>   -7.8188    1.0000 </r>
       <r>   -7.7806    1.0000 </r>
       <r>   -7.7420    1.0000 </r>
       <r>   -7.6971    1.0000 </r>
       <r>   -7.5942    1.0000 </r>
       <r>   -7.5265    1.0000 </r>
       <r>   -7.4979    1.0000 </r>
       <r>   -7.4842    1.0000 </r>
       <r>   -7.4592    1.0000 </r>
       <r>   -7.2075    1.0000 </r>
       <r>   -6.7647    1.0000 </r>
       <r>   -6.3492    1.0000 </r>
       <r>   -6.3114    1.0000 </r>
       <r>   -6.2666    1.0000 </r>
       <r>   -6.0575    1.0000 </r>
       <r>   -6.0163    1.0000 </r>
       <r>   -5.9620    1.0000 </r>
       <r>   -5.9561    1.0000 </r>
       <r>   -5.9544    1.0000 </r>
       <r>   -5.9488    1.0000 </r>
       <r>   -5.9430    1.0000 </r>
       <r>   -5.8598    1.0000 </r>
       <r>   -5.5171    1.0000 </r>
       <r>   -5.5036    1.0000 </r>
       <r>   -5.4886    1.0000 </r>
       <r>   -5.4816    1.0000 </r>
       <r>   -5.2250    1.0000 </r>
       <r>   -5.1447    1.0000 </r>
       <r>   -5.0377    1.0000 </r>
       <r>   -4.7712    1.0000 </r>
       <r>   -3.9238    1.0000 </r>
       <r>   -2.5367    0.0000 </r>
       <r>   -2.3452    0.0000 </r>
       <r>   -2.2655    0.0000 </r>
       <r>   -2.0921    0.0000 </r>
       <r>   -1.4985    0.0000 </r>
       <r>   -1.1070    0.0000 </r>
       <r>   -1.0650    0.0000 </r>
       <r>   -0.9635    0.0000 </r>
       <r>   -0.8837    0.0000 </r>
       <r>   -0.8708    0.0000 </r>
       <r>   -0.8265    0.0000 </r>
       <r>   -0.7785    0.0000 </r>
       <r>   -0.7545    0.0000 </r>
       <r>   -0.7402    0.0000 </r>
       <r>   -0.5498    0.0000 </r>
       <r>   -0.2328    0.0000 </r>
       <r>   -0.1483    0.0000 </r>
       <r>   -0.0690    0.0000 </r>
       <r>    0.0344    0.0000 </r>
       <r>    0.2884    0.0000 </r>
       <r>    0.3328    0.0000 </r>
       <r>    0.3501    0.0000 </r>
       <r>    0.4189    0.0000 </r>
       <r>    0.5155    0.0000 </r>
       <r>    0.5449    0.0000 </r>
       <r>    0.6091    0.0000 </r>
       <r>    0.6303    0.0000 </r>
       <r>    0.6762    0.0000 </r>
       <r>    0.6873    0.0000 </r>
       <r>    0.7623    0.0000 </r>
       <r>    0.7681    0.0000 </r>
       <r>    0.8018    0.0000 </r>
       <r>    0.8240    0.0000 </r>
       <r>    0.9319    0.0000 </r>
       <r>    0.9819    0.0000 </r>
       <r>    0.9905    0.0000 </r>
       <r>    1.0453    0.0000 </r>
       <r>    1.0540    0.0000 </r>
       <r>    1.0874    0.0000 </r>
       <r>    1.1087    0.0000 </r>
       <r>    1.1347    0.0000 </r>
       <r>    1.1612    0.0000 </r>
       <r>    1.2506    0.0000 </r>
       <r>    1.3183    0.0000 </r>
       <r>    1.3552    0.0000 </r>
       <r>    1.3837    0.0000 </r>
       <r>    1.4832    0.0000 </r>
       <r>    1.5032    0.0000 </r>
      </set>
      <set comment="kpoint 3">
       <r>  -24.8964    1.0000 </r>
       <r>  -24.8959    1.0000 </r>
       <r>  -22.7380    1.0000 </r>
       <r>  -22.7287    1.0000 </r>
       <r>  -21.9907    1.0000 </r>
       <r>  -21.9849    1.0000 </r>
       <r>  -21.9831    1.0000 </r>
       <r>  -21.9778    1.0000 </r>
       <r>  -21.2141    1.0000 </r>
       <r>  -21.0153    1.0000 </r>
       <r>  -20.9314    1.0000 </r>
       <r>  -20.9067    1.0000 </r>
       <r>  -20.9018    1.0000 </r>
       <r>  -20.6484    1.0000 </r>
       <r>  -20.6383    1.0000 </r>
       <r>  -20.1636    1.0000 </r>
       <r>  -19.2200    1.0000 </r>
       <r>  -19.1888    1.0000 </r>
       <r>  -19.1375    1.0000 </r>
       <r>  -18.8600    1.0000 </r>
       <r>  -18.4488    1.0000 </r>
       <r>  -18.2079    1.0000 </r>
       <r>  -18.0737    1.0000 </r>
       <r>  -18.0654    1.0000 </r>
       <r>  -18.0543    1.0000 </r>
       <r>  -18.0402    1.0000 </r>
       <r>  -17.9932    1.0000 </r>
       <r>  -17.8851    1.0000 </r>
       <r>  -17.8354    1.0000 </r>
       <r>  -17.6756    1.0000 </r>
       <r>  -17.5493    1.0000 </r>
       <r>  -16.8773    1.0000 </r>
       <r>  -16.5629    1.0000 </r>
       <r>  -16.2814    1.0000 </r>
       <r>  -16.0468    1.0000 </r>
       <r>  -15.9705    1.0000 </r>
       <r>  -15.3479    1.0000 </r>
       <r>  -15.0995    1.0000 </r>
       <r>  -14.9068    1.0000 </r>
       <r>  -14.8176    1.0000 </r>
       <r>  -14.8030    1.0000 </r>
       <r>  -14.7306    1.0000 </r>
       <r>  -14.5952    1.0000 </r>
       <r>  -14.4503    1.0000 </r>
       <r>  -14.4321    1.0000 </r>
       <r>  -14.3137    1.0000 </r>
       <r>  -14.1520    1.0000 </r>
       <r>  -13.9442    1.0000 </r>
       <r>  -13.6947    1.0000 </r>
       <r>  -13.5592    1.0000 </r>
       <r>  -13.4798    1.0000 </r>
       <r>  -13.3606    1.0000 </r>
       <r>  -12.9501    1.0000 </r>
       <r>  -12.9332    1.0000 </r>
       <r>  -12.7838    1.0000 </r>
       <r>  -12.7511    1.0000 </r>
       <r>  -12.7023    1.0000 </r>
       <r>  -12.4606    1.0000 </r>
       <r>  -12.2694    1.0000 </r>
       <r>  -12.2112    1.0000 </r>
       <r>  -12.1355    1.0000 </r>
       <r>  -11.8092    1.0000 </r>
       <r>  -11.6512    1.0000 </r>
       <r>  -11.5440    1.0000 </r>
       <r>  -11.3776    1.0000 </r>
       <r>  -11.0399    1.0000 </r>
       <r>  -10.9931    1.0000 </r>
       <r>  -10.9469    1.0000 </r>
       <r>  -10.8975    1.0000 </r>
       <r>  -10.8168    1.0000 </r>
       <r>  -10.7640    1.0000 </r>
       <r>  -10.6106    1.0000 </r>
       <r>  -10.6000    1.0000 </r>
       <r>  -10.5077    1.0000 </r>
       <r>  -10.4698    1.0000 </r>
[...]
       <r>   -23.4079     0.0000     4.0000 </r>
       <r>   -23.3110     0.0000     4.0000 </r>
       <r>   -23.2141     0.0000     4.0000 </r>
       <r>   -23.1172     0.0000     4.0000 </r>
       <r>   -23.0203     0.0000     4.0000 </r>
       <r>   -22.9234     0.0000     4.0000 </r>
       <r>   -22.8266     0.0000     4.0000 </r>
       <r>   -22.7297    27.9029     6.7034 </r>
       <r>   -22.6328     0.0000     8.0000 </r>
       <r>   -22.5359     0.0000     8.0000 </r>
       <r>   -22.4390     0.0000     8.0000 </r>
       <r>   -22.3421     0.0000     8.0000 </r>
       <r>   -22.2452     0.0000     8.0000 </r>
       <r>   -22.1483     0.0000     8.0000 </r>
       <r>   -22.0515     0.0000     8.0000 </r>
       <r>   -21.9546    82.5576    15.9988 </r>
       <r>   -21.8577     0.0000    16.0000 </r>
       <r>   -21.7608     0.0000    16.0000 </r>
       <r>   -21.6639     0.0000    16.0000 </r>
       <r>   -21.5670     0.0000    16.0000 </r>
       <r>   -21.4701     0.0000    16.0000 </r>
       <r>   -21.3732     0.0000    16.0000 </r>
       <r>   -21.2764     0.0000    16.0000 </r>
       <r>   -21.1795    20.6425    18.0000 </r>
       <r>   -21.0826     0.0000    18.0000 </r>
       <r>   -20.9857    18.6890    19.8107 </r>
       <r>   -20.8888    49.4793    24.7946 </r>
       <r>   -20.7919     0.0000    26.0000 </r>
       <r>   -20.6950     0.0000    26.0000 </r>
       <r>   -20.5981    40.5370    29.9275 </r>
       <r>   -20.5013     0.0000    30.0000 </r>
       <r>   -20.4044     0.0000    30.0000 </r>
       <r>   -20.3075     0.0000    30.0000 </r>
       <r>   -20.2106     0.0000    30.0000 </r>
       <r>   -20.1137    20.6425    32.0000 </r>
       <r>   -20.0168     0.0000    32.0000 </r>
       <r>   -19.9199     0.0000    32.0000 </r>
       <r>   -19.8230     0.0000    32.0000 </r>
       <r>   -19.7262     0.0000    32.0000 </r>
       <r>   -19.6293     0.0000    32.0000 </r>
       <r>   -19.5324     0.0000    32.0000 </r>
       <r>   -19.4355     0.0000    32.0000 </r>
       <r>   -19.3386     0.0000    32.0000 </r>
       <r>   -19.2417     0.0070    32.0007 </r>
       <r>   -19.1448    41.8155    36.0521 </r>
       <r>   -19.0479    14.9635    38.0000 </r>
       <r>   -18.9510     0.0000    38.0000 </r>
       <r>   -18.8542    20.1926    39.9564 </r>
       <r>   -18.7573     0.0000    40.0000 </r>
       <r>   -18.6604     0.0000    40.0000 </r>
       <r>   -18.5635     0.0001    40.0000 </r>
       <r>   -18.4666    14.3518    41.3905 </r>
       <r>   -18.3697     5.3293    42.0000 </r>
       <r>   -18.2728     0.0000    42.0000 </r>
       <r>   -18.1759    19.6244    43.9014 </r>
       <r>   -18.0791    19.7356    45.9123 </r>
       <r>   -17.9822    72.8562    53.6973 </r>
       <r>   -17.8853    30.5994    56.8818 </r>
       <r>   -17.7884     4.0899    57.7296 </r>
       <r>   -17.6915     2.1347    58.0069 </r>
       <r>   -17.5946     5.0379    58.6884 </r>
       <r>   -17.4977    11.4622    59.9607 </r>
       <r>   -17.4008    10.1993    61.6549 </r>
       <r>   -17.3040     2.9242    62.0000 </r>
       <r>   -17.2071     0.0000    62.0000 </r>
       <r>   -17.1102     0.0000    62.0000 </r>
       <r>   -17.0133     0.0001    62.0000 </r>
       <r>   -16.9164    15.1920    63.4719 </r>
       <r>   -16.8195     3.4375    64.0000 </r>
       <r>   -16.7226     0.0000    64.0000 </r>
       <r>   -16.6257     0.0000    64.0000 </r>
       <r>   -16.5289     6.0481    64.5860 </r>
       <r>   -16.4320    12.6640    65.9942 </r>
       <r>   -16.3351     0.0000    66.0000 </r>
       <r>   -16.2382    11.5339    67.1175 </r>
       <r>   -16.1413    13.1736    69.2764 </r>
       <r>   -16.0444     3.7853    69.7001 </r>
       <r>   -15.9475    15.6481    71.5161 </r>
       <r>   -15.8506     2.5220    71.8111 </r>
       <r>   -15.7538     1.0300    72.0000 </r>
       <r>   -15.6569     0.0000    72.0000 </r>
       <r>   -15.5600     1.6405    72.1589 </r>
       <r>   -15.4631     1.6539    72.3603 </r>
       <r>   -15.3662     4.9128    72.8594 </r>
       <r>   -15.2693     6.4227    73.9724 </r>
       <r>   -15.1724     9.8759    74.9902 </r>
       <r>   -15.0755     6.3710    75.6506 </r>
       <r>   -14.9787    20.9063    77.8109 </r>
       <r>   -14.8818    16.1438    79.7156 </r>
       <r>   -14.7849    10.5351    80.8541 </r>
       <r>   -14.6880    21.6422    83.4802 </r>
       <r>   -14.5911     7.1852    84.5129 </r>
       <r>   -14.4942     8.9198    85.4477 </r>
       <r>   -14.3973    19.9134    87.7795 </r>
       <r>   -14.3004    10.6421    89.0649 </r>
       <r>   -14.2036     7.4206    89.9025 </r>
       <r>   -14.1067    18.9090    91.8660 </r>
       <r>   -14.0098    13.1176    93.2711 </r>
       <r>   -13.9129    19.9020    95.3451 </r>
       <r>   -13.8160    11.5627    96.8871 </r>
       <r>   -13.7191     2.4953    97.1751 </r>
       <r>   -13.6222    12.8117    98.4414 </r>
       <r>   -13.5253    23.1480   101.3765 </r>
       <r>   -13.4285     4.4703   102.0000 </r>
       <r>   -13.3316    20.6424   104.0000 </r>
       <r>   -13.2347     0.0000   104.0000 </r>
       <r>   -13.1378     0.0000   104.0000 </r>
       <r>   -13.0409     0.0000   104.0000 </r>
       <r>   -12.9440     2.2231   104.2154 </r>
       <r>   -12.8471    39.7294   108.4829 </r>
       <r>   -12.7502    34.2776   111.9712 </r>
       <r>   -12.6534     4.0006   113.6043 </r>
       <r>   -12.5565     2.6483   113.9066 </r>
       <r>   -12.4596    15.6146   115.5129 </r>
       <r>   -12.3627    18.6837   117.5605 </r>
       <r>   -12.2658    15.4043   119.1093 </r>
       <r>   -12.1689     4.1602   119.6531 </r>
       <r>   -12.0720    22.0180   121.9837 </r>
       <r>   -11.9751     2.9302   123.4008 </r>
       <r>   -11.8783     2.3482   123.6608 </r>
       <r>   -11.7814     1.8551   123.8964 </r>
       <r>   -11.6845     1.8679   124.1810 </r>
       <r>   -11.5876    17.4695   126.0104 </r>
       <r>   -11.4907     4.8320   126.6684 </r>
       <r>   -11.3938    13.0266   127.9789 </r>
       <r>   -11.2969     2.6182   128.4042 </r>
       <r>   -11.2000     1.9511   128.6390 </r>
       <r>   -11.1032    17.3454   130.3808 </r>
       <r>   -11.0063    14.9015   132.1605 </r>
       <r>   -10.9094    28.9923   135.8431 </r>
       <r>   -10.8125    20.9492   138.2304 </r>
       <r>   -10.7156    24.6411   140.8048 </r>
       <r>   -10.6187     9.6217   141.8656 </r>
       <r>   -10.5218    34.7798   145.9248 </r>
       <r>   -10.4249    59.3582   152.4515 </r>
       <r>   -10.3281     9.1122   154.0000 </r>
       <r>   -10.2312    29.7483   156.8822 </r>
       <r>   -10.1343    16.0601   159.5560 </r>
       <r>   -10.0374    15.5917   162.3280 </r>
       <r>    -9.9405    16.4483   164.0108 </r>
       <r>    -9.8436    28.6010   167.0719 </r>
       <r>    -9.7467    34.6606   170.8584 </r>
       <r>    -9.6498    48.4301   177.2269 </r>
       <r>    -9.5530    33.1002   181.8921 </r>
       <r>    -9.4561     3.1430   182.3714 </r>
       <r>    -9.3592    16.1692   184.0000 </r>
       <r>    -9.2623     0.3168   184.0307 </r>
       <r>    -9.1654    32.8791   187.7026 </r>
       <r>    -9.0685    20.7036   190.0059 </r>
       <r>    -8.9716     5.7803   190.7102 </r>
       <r>    -8.8747    58.3561   197.2416 </r>
       <r>    -8.7779    12.9754   198.9578 </r>
       <r>    -8.6810     6.1154   200.5925 </r>
       <r>    -8.5841     9.1072   202.6491 </r>
       <r>    -8.4872    32.9964   206.3507 </r>
       <r>    -8.3903    16.4387   208.0094 </r>
       <r>    -8.2934     5.2955   209.5964 </r>
       <r>    -8.1965    22.6825   211.9144 </r>
       <r>    -8.0996    29.7241   216.1646 </r>
       <r>    -8.0027    24.2576   218.8511 </r>
       <r>    -7.9059    17.5783   221.7031 </r>
       <r>    -7.8090    35.5222   225.9596 </r>
       <r>    -7.7121    47.5362   230.9396 </r>
       <r>    -7.6152    26.8909   234.0411 </r>
       <r>    -7.5183    40.8276   238.1894 </r>
       <r>    -7.4214    45.3340   243.7833 </r>
       <r>    -7.3245     0.0000   244.0000 </r>
       <r>    -7.2276    11.2931   245.0942 </r>
       <r>    -7.1308     5.1477   246.0000 </r>
       <r>    -7.0339     0.0000   246.0000 </r>
       <r>    -6.9370     0.0000   246.0000 </r>
       <r>    -6.8401     0.0000   246.0000 </r>
       <r>    -6.7432    10.1922   246.9875 </r>
       <r>    -6.6463     0.0000   248.0000 </r>
       <r>    -6.5494     0.0000   248.0000 </r>
       <r>    -6.4525     7.6278   248.7390 </r>
       <r>    -6.3557    16.0990   250.8098 </r>
       <r>    -6.2588    16.6072   252.6759 </r>
       <r>    -6.1619     0.0000   254.0000 </r>
       <r>    -6.0650     8.4945   254.8230 </r>
       <r>    -5.9681    38.9093   259.7698 </r>
       <r>    -5.8712    57.1474   268.0054 </r>
       <r>    -5.7743     7.2498   268.9195 </r>
       <r>    -5.6774     0.0000   270.0000 </r>
       <r>    -5.5806     0.0000   270.0000 </r>
       <r>    -5.4837    51.2964   274.9700 </r>
       <r>    -5.3868    21.4199   278.0000 </r>
       <r>    -5.2899     0.0000   278.0000 </r>
       <r>    -5.1930    20.6419   279.9999 </r>
       <r>    -5.0961    20.6425   282.0000 </r>
       <r>    -4.9992    20.6425   284.0000 </r>
       <r>    -4.9023     0.0000   284.0000 </r>
       <r>    -4.8055     0.0406   284.0039 </r>
       <r>    -4.7086    20.6019   286.0000 </r>
       <r>    -4.6117     0.0000   286.0000 </r>
       <r>    -4.5148     0.0000   286.0000 </r>
       <r>    -4.4179     0.0000   286.0000 </r>
       <r>    -4.3210     0.0000   286.0000 </r>
       <r>    -4.2241     0.0000   286.0000 </r>
       <r>    -4.1272     0.0000   286.0000 </r>
       <r>    -4.0304     0.0000   286.0000 </r>
       <r>    -3.9335    11.7858   287.1419 </r>
       <r>    -3.8366     0.0000   288.0000 </r>
       <r>    -3.7397     0.0000   288.0000 </r>
       <r>    -3.6428     0.0000   288.0000 </r>
       <r>    -3.5459     0.0000   288.0000 </r>
       <r>    -3.4490     0.0000   288.0000 </r>
       <r>    -3.3521     0.0000   288.0000 </r>
       <r>    -3.2553     0.0000   288.0000 </r>
       <r>    -3.1584     0.0000   288.0000 </r>
       <r>    -3.0615     0.0000   288.0000 </r>
       <r>    -2.9646     0.0000   288.0000 </r>
       <r>    -2.8677     0.0000   288.0000 </r>
       <r>    -2.7708     0.0000   288.0000 </r>
       <r>    -2.6739     0.0000   288.0000 </r>
       <r>    -2.5770     0.0000   288.0000 </r>
       <r>    -2.4802    20.6425   290.0000 </r>
       <r>    -2.3833     0.0000   290.0000 </r>
       <r>    -2.2864     9.4365   290.9143 </r>
       <r>    -2.1895    14.0235   294.0000 </r>
       <r>    -2.0926    15.7649   295.5274 </r>
       <r>    -1.9957     0.0000   296.0000 </r>
       <r>    -1.8988     0.0000   296.0000 </r>
       <r>    -1.8019     0.0000   296.0000 </r>
       <r>    -1.7051     0.0302   296.0029 </r>
       <r>    -1.6082     2.6840   296.3436 </r>
       <r>    -1.5113     2.5011   296.6257 </r>
       <r>    -1.4144    12.7290   298.7168 </r>
       <r>    -1.3175     1.9622   299.0068 </r>
       <r>    -1.2206     3.6011   299.3824 </r>
       <r>    -1.1237     6.2593   300.1233 </r>
       <r>    -1.0268     7.0363   301.9820 </r>
       <r>    -0.9300    20.0705   303.9446 </r>
       <r>    -0.8331    25.1978   306.4583 </r>
       <r>    -0.7362    45.7798   312.6358 </r>
       <r>    -0.6393    15.6258   314.6644 </r>
       <r>    -0.5424     7.9820   315.4735 </r>
       <r>    -0.4455     3.0677   315.8806 </r>
       <r>    -0.3486     8.6742   316.8073 </r>
       <r>    -0.2517    10.7517   317.8585 </r>
       <r>    -0.1549    22.6562   320.2291 </r>
       <r>    -0.0580    19.8462   322.5066 </r>
       <r>     0.0389    29.7446   326.4323 </r>
       <r>     0.1358    18.8679   328.4805 </r>
       <r>     0.2327     5.0599   329.0571 </r>
       <r>     0.3296    14.9375   330.7142 </r>
       <r>     0.4265    45.8747   335.6315 </r>
       <r>     0.5234    15.7570   337.4602 </r>
       <r>     0.6202    29.0027   341.2772 </r>
       <r>     0.7171    33.2398   344.8879 </r>
       <r>     0.8140    41.0142   349.7412 </r>
       <r>     0.9109    19.9985   352.2380 </r>
       <r>     1.0078    57.0997   358.8164 </r>
       <r>     1.1047    56.2700   365.5525 </r>
       <r>     1.2016    43.3393   370.1828 </r>
       <r>     1.2985    42.4018   375.2809 </r>
       <r>     1.3953    38.3087   379.4293 </r>
       <r>     1.4922    30.5849   382.7635 </r>
       <r>     1.5891     9.0730   384.0000 </r>
       <r>     1.6860     0.0000   384.0000 </r>
       <r>     1.7829     0.0000   384.0000 </r>
       <r>     1.8798     0.0000   384.0000 </r>
       <r>     1.9767     0.0000   384.0000 </r>
       <r>     2.0736     0.0000   384.0000 </r>
       <r>     2.1704     0.0000   384.0000 </r>
       <r>     2.2673     0.0000   384.0000 </r>
       <r>     2.3642     0.0000   384.0000 </r>
       <r>     2.4611     0.0000   384.0000 </r>
       <r>     2.5580     0.0000   384.0000 </r>
       <r>     2.6549     0.0000   384.0000 </r>
       <r>     2.7518     0.0000   384.0000 </r>
       <r>     2.8487     0.0000   384.0000 </r>
      </set>
     </set>
    </array>
   </total>
  </dos>
 </calculation>
 <structure name="finalpos" >
  <crystal>
   <varray name="basis" >
    <v>      14.91281776       0.03149817       0.00000000 </v>
    <v>       0.06719248      25.19836797       0.00000000 </v>
    <v>       1.02387028       0.58407687      20.00000000 </v>
   </varray>
   <i name="volume">   7515.53105671 </i>
   <varray name="rec_basis" >
    <v>       0.06705679      -0.00017881      -0.00342765 </v>
    <v>      -0.00008382       0.03968533      -0.00115467 </v>
    <v>       0.00000000       0.00000000       0.05000000 </v>
   </varray>
  </crystal>
  <varray name="positions" >
   <v>       0.03451734       0.02051462       0.49439478 </v>
   <v>       0.95396876       0.04968016       0.49481476 </v>
   <v>       0.95098820       0.10501373       0.48710296 </v>
   <v>       0.03278385       0.13369854       0.47704902 </v>
   <v>       0.11522882       0.10587703       0.48393378 </v>
   <v>       0.11387420       0.05048847       0.49133680 </v>
   <v>       0.03594986       0.96168164       0.49458469 </v>
   <v>       0.95700939       0.93183298       0.49167326 </v>
   <v>       0.95669219       0.87675026       0.48463203 </v>
   <v>       0.04007759       0.84921255       0.47807286 </v>
   <v>       0.12053241       0.87749910       0.48780972 </v>
   <v>       0.11645340       0.93251580       0.49515418 </v>
   <v>       0.61510612       0.76754442       0.49444648 </v>
   <v>       0.53774330       0.69053107       0.51428702 </v>
   <v>       0.46261441       0.76843495       0.49882657 </v>
   <v>       0.53690679       0.63199305       0.52175035 </v>
   <v>       0.61583400       0.60256107       0.50881384 </v>
   <v>       0.61409816       0.54740287       0.51173769 </v>
   <v>       0.53398555       0.51955156       0.52856519 </v>
   <v>       0.45572083       0.54949395       0.54318146 </v>
   <v>       0.45685391       0.60465093       0.53929958 </v>
   <v>       0.70185142       0.79574919       0.48991484 </v>
   <v>       0.77573015       0.77306339       0.52103717 </v>
   <v>       0.85748707       0.79929688       0.51926349 </v>
   <v>       0.86981587       0.84845125       0.48450583 </v>
   <v>       0.79544543       0.87055159       0.45280268 </v>
   <v>       0.71248227       0.84520492       0.45637425 </v>
   <v>       0.37638972       0.79732302       0.49636393 </v>
   <v>       0.36979376       0.84674597       0.46269329 </v>
   <v>       0.28697721       0.87211769       0.45878165 </v>
   <v>       0.20838637       0.84993296       0.48999468 </v>
   <v>       0.21661862       0.80115763       0.52560630 </v>
   <v>       0.29858915       0.77500952       0.52797933 </v>
   <v>       0.45545642       0.21460795       0.49424947 </v>
   <v>       0.53005019       0.29066095       0.51433860 </v>
   <v>       0.60738489       0.21354096       0.49868607 </v>
   <v>       0.52987958       0.34881446       0.52196227 </v>
   <v>       0.45280335       0.37884682       0.50884880 </v>
   <v>       0.45416731       0.43387260       0.51166171 </v>
   <v>       0.53190844       0.46093620       0.52863425 </v>
   <v>       0.60806078       0.43030953       0.54351558 </v>
   <v>       0.60746041       0.37532633       0.53970023 </v>
   <v>       0.36933665       0.18658584       0.48974196 </v>
   <v>       0.29109081       0.20780910       0.52077894 </v>
   <v>       0.20957736       0.18168420       0.51878335 </v>
   <v>       0.20213160       0.13416450       0.48395624 </v>
   <v>       0.28095975       0.11350023       0.45245397 </v>
   <v>       0.36340698       0.13867937       0.45618970 </v>
   <v>       0.69402267       0.18482831       0.49601497 </v>
   <v>       0.70522117       0.13704439       0.46216228 </v>
   <v>       0.78857190       0.11186207       0.45813506 </v>
   <v>       0.86290993       0.13255881       0.48933732 </v>
   <v>       0.84990957       0.17967014       0.52500993 </v>
   <v>       0.76757145       0.20566944       0.52755713 </v>
   <v>       0.03211330       0.18752713       0.46056553 </v>
   <v>       0.04293964       0.79601451       0.46215991 </v>
   <v>       0.61789132       0.71482597       0.50737945 </v>
   <v>       0.45830966       0.71593926       0.51337273 </v>
   <v>       0.53934670       0.79588598       0.48665448 </v>
   <v>       0.45086904       0.26672655       0.50716215 </v>
   <v>       0.60961663       0.26530659       0.51350409 </v>
   <v>       0.53233417       0.18667289       0.48643838 </v>
   <v>       0.98849220       0.78183086       0.44022295 </v>
   <v>       0.10250623       0.78236958       0.44269129 </v>
   <v>       0.08964526       0.20273040       0.43877817 </v>
   <v>       0.97518997       0.20207751       0.44117492 </v>
   <v>       0.17848301       0.03061989       0.49553371 </v>
   <v>       0.89182164       0.95152712       0.49564637 </v>
   <v>       0.91277368       0.78197073       0.54611656 </v>
   <v>       0.76720091       0.73496897       0.54773683 </v>
   <v>       0.80328361       0.90812963       0.42467468 </v>
   <v>       0.65519184       0.86308210       0.43242511 </v>
   <v>       0.43022790       0.86438043       0.43864831 </v>
   <v>       0.28246180       0.90955479       0.43033894 </v>
   <v>       0.30387609       0.73705451       0.55500789 </v>
   <v>       0.15759928       0.78391828       0.55216286 </v>
   <v>       0.39575234       0.62747423       0.54972589 </v>
   <v>       0.39324216       0.52913962       0.55835330 </v>
   <v>       0.67536897       0.52537291       0.49878039 </v>
   <v>       0.67782709       0.62377527       0.49490081 </v>
   <v>       0.15049631       0.19775864       0.54551639 </v>
   <v>       0.29584006       0.24463034       0.54757692 </v>
   <v>       0.27707487       0.07722714       0.42430635 </v>
   <v>       0.42407124       0.12194114       0.43232777 </v>
   <v>       0.64807734       0.12056118       0.43807756 </v>
   <v>       0.79700497       0.07576259       0.42964811 </v>
   <v>       0.75858769       0.24233002       0.55468111 </v>
   <v>       0.90535416       0.19566625       0.55151530 </v>
   <v>       0.66709017       0.35203658       0.55028764 </v>
   <v>       0.66840778       0.44998422       0.55873633 </v>
   <v>       0.39481204       0.45649369       0.49838241 </v>
   <v>       0.39278329       0.35826405       0.49483999 </v>
   <v>       0.88978854       0.02928157       0.50227889 </v>
   <v>       0.17961805       0.95262232       0.50239411 </v>
  </varray>
 </structure>
</modeling>
