<?xml version="1.0" encoding="ISO-8859-1"?>
<modeling>
 <generator>
  <i name="program" type="string">vasp </i>
  <i name="version" type="string">5.4.4.18Apr17-6-g9f103f2a35  </i>
  <i name="subversion" type="string">(build Jun 07 2020 16:50:00) complex            parallel </i>
  <i name="platform" type="string">LinuxIFC </i>
  <i name="date" type="string">2023 02 26 </i>
  <i name="time" type="string">11:15:44 </i>
 </generator>
 <incar>
  <i type="string" name="SYSTEM">Simulation for cell shape cell volume r</i>
  <i type="int" name="ISTART">     1</i>
  <i type="string" name="PREC">high</i>
  <i type="string" name="ALGO">48</i>
  <i type="int" name="ICHARG">    11</i>
  <i type="int" name="NELM">   200</i>
  <i type="int" name="IBRION">    -1</i>
  <i name="EDIFF">      0.00001000</i>
  <i name="EDIFFG">     -0.01000000</i>
  <i type="int" name="NSW">     0</i>
  <i type="int" name="ISIF">     2</i>
  <i name="ENCUT">    500.00000000</i>
  <i name="POTIM">      0.30000000</i>
  <i type="string" name="LREAL">A</i>
  <i type="int" name="ISMEAR">     0</i>
  <i name="SIGMA">      0.01000000</i>
  <i type="int" name="NWRITE">     0</i>
  <i type="logical" name="LWAVE"> F  </i>
  <i type="logical" name="LCHARG"> F  </i>
  <v type="int" name="KPOINT_BSE">    -1     0     0     0</v>
  <i type="int" name="NELM">   200</i>
  <i type="string" name="GGA">PE</i>
 </incar>
 <structure name="primitive_cell" >
  <crystal>
   <varray name="basis" >
    <v>      32.28927424      -0.01588653       0.00000000 </v>
    <v>     -16.15839415      27.98114811       0.00000000 </v>
    <v>       0.00000000       0.00000000      20.00000000 </v>
   </varray>
   <i name="volume">  18064.68528403 </i>
   <varray name="rec_basis" >
    <v>       0.03097884       0.01788948       0.00000000 </v>
    <v>       0.00001759       0.03574850       0.00000000 </v>
    <v>       0.00000000       0.00000000       0.05000000 </v>
   </varray>
  </crystal>
  <varray name="positions" >
   <v>       0.35825039      -0.32503368      -0.47991028 </v>
   <v>       0.38324817      -0.35059656      -0.47830461 </v>
   <v>       0.38380024      -0.27444989      -0.47803939 </v>
   <v>       0.30762034      -0.35004197      -0.47824953 </v>
   <v>       0.36927566      -0.39041649       0.47994889 </v>
   <v>       0.42329274      -0.24839632       0.47971008 </v>
   <v>       0.28173208      -0.33619801       0.47987212 </v>
   <v>       0.37011638      -0.24959729      -0.43391567 </v>
   <v>       0.42221080      -0.33670935      -0.43484620 </v>
   <v>       0.28253755      -0.38889297      -0.43465270 </v>
   <v>       0.33891150      -0.40144851       0.44636190 </v>
   <v>       0.30105577      -0.30590201       0.44620605 </v>
   <v>       0.43416827      -0.26756672       0.44561399 </v>
   <v>       0.33937407      -0.26966443      -0.40119660 </v>
   <v>       0.43333379      -0.30571032      -0.40254463 </v>
   <v>       0.30244198      -0.39990577      -0.40221787 </v>
   <v>       0.39402702      -0.41540262       0.48142508 </v>
   <v>       0.44809686      -0.19865350       0.48126051 </v>
   <v>       0.23194857      -0.36100855       0.48128764 </v>
   <v>       0.44622404      -0.36241280      -0.43289907 </v>
   <v>       0.39563407      -0.19987080      -0.43191498 </v>
   <v>       0.23277592      -0.41296964      -0.43276953 </v>
   <v>       0.43277198      -0.40205481      -0.47483955 </v>
   <v>       0.43489759      -0.17346134      -0.47444804 </v>
   <v>       0.20654007      -0.39968317      -0.47490551 </v>
   <v>       0.38290092      -0.44620973       0.44865292 </v>
   <v>       0.47864033      -0.17879591       0.44806594 </v>
   <v>       0.21223670      -0.34998174       0.44840851 </v>
   <v>       0.38466916      -0.18095630      -0.39741501 </v>
   <v>       0.47638900      -0.35134090      -0.39885743 </v>
   <v>       0.21367975      -0.44306615      -0.39864232 </v>
   <v>       0.45911705      -0.42856875      -0.47314329 </v>
   <v>       0.46117983      -0.12059717      -0.47287356 </v>
   <v>       0.15363821      -0.42611438      -0.47332580 </v>
   <v>       0.45299831      -0.11269602       0.42150369 </v>
   <v>       0.14561222      -0.44184250       0.42095302 </v>
   <v>       0.47516150      -0.42065496       0.42124035 </v>
   <v>       0.44929993      -0.44320601      -0.36714898 </v>
   <v>       0.14870005      -0.41665066      -0.36725519 </v>
   <v>       0.47605652      -0.11552178      -0.36692448 </v>
   <v>       0.46779573      -0.09396935       0.46857129 </v>
   <v>       0.47903245      -0.43540966       0.46837395 </v>
   <v>       0.12693052      -0.44588180       0.46809627 </v>
   <v>       0.46544143      -0.44712991      -0.41289266 </v>
   <v>       0.12866671      -0.43266899      -0.41307743 </v>
   <v>       0.47979082      -0.09557445      -0.41271646 </v>
   <v>       0.49112225      -0.04425986       0.47042490 </v>
   <v>      -0.49470149      -0.45885398       0.47038606 </v>
   <v>       0.07717955      -0.47222192       0.47001870 </v>
   <v>       0.49081389      -0.47145504      -0.41109679 </v>
   <v>       0.07893062      -0.45810573      -0.41136945 </v>
   <v>      -0.49599586      -0.04587164      -0.41109050 </v>
   <v>      -0.49043830      -0.01920783      -0.46934914 </v>
   <v>      -0.48810013      -0.47717010      -0.46926989 </v>
   <v>       0.05217676      -0.47902532      -0.46965095 </v>
   <v>       0.49390024      -0.02455012       0.42475580 </v>
   <v>       0.05739886      -0.48898314       0.42431967 </v>
   <v>      -0.47784246      -0.46180079       0.42474144 </v>
   <v>       0.49359591      -0.48679116      -0.36386723 </v>
   <v>       0.06076061      -0.46106445      -0.36411583 </v>
   <v>      -0.48061764      -0.02765787      -0.36392591 </v>
   <v>      -0.40494308      -0.42436532      -0.37359676 </v>
   <v>       0.02183453       0.43773573      -0.37399216 </v>
   <v>       0.45688681       0.01107840      -0.37338970 </v>
   <v>      -0.46500916       0.03357504      -0.46899304 </v>
   <v>      -0.46077301       0.49738303      -0.46869905 </v>
   <v>      -0.00064544       0.49358429      -0.46920498 </v>
   <v>      -0.42991669       0.03959474       0.43710059 </v>
   <v>      -0.48996400       0.46220317       0.43752540 </v>
   <v>      -0.00668561      -0.47703389       0.43721019 </v>
   <v>      -0.00713732       0.45100619      -0.36069082 </v>
   <v>      -0.41811350      -0.46655487      -0.36014602 </v>
   <v>       0.49919235       0.04004966      -0.36023624 </v>
   <v>      -0.43423211       0.05951531       0.47791784 </v>
   <v>      -0.46567755       0.46654564       0.47830657 </v>
   <v>      -0.02661769       0.49855813       0.47787671 </v>
   <v>      -0.02882288       0.46280161      -0.41741566 </v>
   <v>      -0.43010923       0.49986760      -0.41680171 </v>
   <v>      -0.46743733       0.06174910      -0.41709466 </v>
   <v>      -0.02062181       0.45396515      -0.30362049 </v>
   <v>      -0.48420274       0.05352909      -0.30323780 </v>
   <v>      -0.42072996      -0.48282608      -0.30305509 </v>
   <v>      -0.40896624       0.10917977       0.47612349 </v>
   <v>      -0.44124985       0.44131909       0.47650772 </v>
   <v>      -0.07631969       0.47409326       0.47610516 </v>
   <v>      -0.07853391       0.43961180      -0.41695722 </v>
   <v>      -0.40705412       0.47325571      -0.41628982 </v>
   <v>      -0.44085672       0.11142541      -0.41662981 </v>
   <v>      -0.38699973       0.12699718       0.43243448 </v>
   <v>      -0.44538262       0.41939248       0.43281009 </v>
   <v>      -0.09415772       0.47837504       0.43256269 </v>
   <v>      -0.41148260       0.13659206      -0.47093283 </v>
   <v>      -0.41129391       0.44385898      -0.47054653 </v>
   <v>      -0.10372828       0.44394292      -0.47111067 </v>
   <v>      -0.09719848       0.41793530      -0.37349732 </v>
   <v>      -0.38548442       0.47616639      -0.37275571 </v>
   <v>      -0.44370484       0.13008445      -0.37306705 </v>
   <v>      -0.38493088       0.18935111      -0.47214132 </v>
   <v>      -0.38503510       0.41737031      -0.47176482 </v>
   <v>      -0.15651537       0.41767701      -0.47230018 </v>
   <v>      -0.32798063       0.19610852       0.46314098 </v>
   <v>      -0.43517925       0.36051121       0.46334400 </v>
   <v>      -0.16327936       0.46804217       0.46344581 </v>
   <v>      -0.32736072       0.46680492      -0.40729072 </v>
   <v>      -0.16470431       0.35976229      -0.40851049 </v>
   <v>      -0.43444524       0.19756780      -0.40785468 </v>
   <v>      -0.34240592       0.21516110       0.49081959 </v>
   <v>      -0.40168973       0.37494047       0.49107035 </v>
   <v>      -0.18233834       0.43447627       0.49095696 </v>
   <v>      -0.34205911       0.43371753      -0.43597201 </v>
   <v>      -0.18313604       0.37458681      -0.43681141 </v>
   <v>      -0.40127886       0.21597294      -0.43642420 </v>
   <v>      -0.31766229       0.26483114       0.48902162 </v>
   <v>      -0.37666298       0.35030956       0.48916826 </v>
   <v>      -0.23204189       0.40950680       0.48921316 </v>
   <v>      -0.31719865       0.40892299      -0.43655786 </v>
   <v>      -0.23282960       0.34976956      -0.43723756 </v>
   <v>      -0.37638543       0.26563640      -0.43691989 </v>
   <v>      -0.28493145       0.28381977       0.45969996 </v>
   <v>      -0.39032723       0.31766183       0.45973380 </v>
   <v>      -0.25106083       0.42329157       0.46010687 </v>
   <v>      -0.28420895       0.42232641      -0.40793841 </v>
   <v>      -0.25240675       0.31667661      -0.40887923 </v>
   <v>      -0.38982501       0.28519573      -0.40838916 </v>
   <v>      -0.33403637       0.36683778      -0.47433146 </v>
   <v>      -0.33416603       0.29092560      -0.47450478 </v>
   <v>      -0.25813711       0.36677790      -0.47453834 </v>
   <v>      -0.30875677       0.34152896      -0.47540759 </v>
  </varray>
 </structure>
 <varray name="primitive_index" >
  <v type="int" >        1 </v>
  <v type="int" >       25 </v>
  <v type="int" >       24 </v>
  <v type="int" >       12 </v>
  <v type="int" >       35 </v>
  <v type="int" >       26 </v>
  <v type="int" >       13 </v>
  <v type="int" >       30 </v>
  <v type="int" >       31 </v>
  <v type="int" >       17 </v>
  <v type="int" >       99 </v>
  <v type="int" >       84 </v>
  <v type="int" >       93 </v>
  <v type="int" >       94 </v>
  <v type="int" >       96 </v>
  <v type="int" >       86 </v>
  <v type="int" >       34 </v>
  <v type="int" >       27 </v>
  <v type="int" >       14 </v>
  <v type="int" >       32 </v>
  <v type="int" >       29 </v>
  <v type="int" >       16 </v>
  <v type="int" >       33 </v>
  <v type="int" >       28 </v>
  <v type="int" >       15 </v>
  <v type="int" >       98 </v>
  <v type="int" >       92 </v>
  <v type="int" >       85 </v>
  <v type="int" >       95 </v>
  <v type="int" >       97 </v>
  <v type="int" >       87 </v>
  <v type="int" >       40 </v>
  <v type="int" >       37 </v>
  <v type="int" >       19 </v>
  <v type="int" >      104 </v>
  <v type="int" >       91 </v>
  <v type="int" >      105 </v>
  <v type="int" >      101 </v>
  <v type="int" >       88 </v>
  <v type="int" >      100 </v>
  <v type="int" >       44 </v>
  <v type="int" >       45 </v>
  <v type="int" >       23 </v>
  <v type="int" >       41 </v>
  <v type="int" >       20 </v>
  <v type="int" >       38 </v>
  <v type="int" >       43 </v>
  <v type="int" >       47 </v>
  <v type="int" >       22 </v>
  <v type="int" >       42 </v>
  <v type="int" >       21 </v>
  <v type="int" >       46 </v>
  <v type="int" >       36 </v>
  <v type="int" >       39 </v>
  <v type="int" >       18 </v>
  <v type="int" >      103 </v>
  <v type="int" >       90 </v>
  <v type="int" >      108 </v>
  <v type="int" >      102 </v>
  <v type="int" >       89 </v>
  <v type="int" >      106 </v>
  <v type="int" >        9 </v>
  <v type="int" >       11 </v>
  <v type="int" >        6 </v>
  <v type="int" >       48 </v>
  <v type="int" >       50 </v>
  <v type="int" >       77 </v>
  <v type="int" >      107 </v>
  <v type="int" >      109 </v>
  <v type="int" >      128 </v>
  <v type="int" >        5 </v>
  <v type="int" >        3 </v>
  <v type="int" >        2 </v>
  <v type="int" >       51 </v>
  <v type="int" >       52 </v>
  <v type="int" >       83 </v>
  <v type="int" >       78 </v>
  <v type="int" >       74 </v>
  <v type="int" >       49 </v>
  <v type="int" >       10 </v>
  <v type="int" >        8 </v>
  <v type="int" >        7 </v>
  <v type="int" >       80 </v>
  <v type="int" >       81 </v>
  <v type="int" >       82 </v>
  <v type="int" >       79 </v>
  <v type="int" >       75 </v>
  <v type="int" >       72 </v>
  <v type="int" >      125 </v>
  <v type="int" >      126 </v>
  <v type="int" >      127 </v>
  <v type="int" >       71 </v>
  <v type="int" >       73 </v>
  <v type="int" >       76 </v>
  <v type="int" >      124 </v>
  <v type="int" >      123 </v>
  <v type="int" >      122 </v>
  <v type="int" >       63 </v>
  <v type="int" >       68 </v>
  <v type="int" >       58 </v>
  <v type="int" >      113 </v>
  <v type="int" >      117 </v>
  <v type="int" >      121 </v>
  <v type="int" >      118 </v>
  <v type="int" >      115 </v>
  <v type="int" >      110 </v>
  <v type="int" >       64 </v>
  <v type="int" >       67 </v>
  <v type="int" >       59 </v>
  <v type="int" >       69 </v>
  <v type="int" >       57 </v>
  <v type="int" >       62 </v>
  <v type="int" >       65 </v>
  <v type="int" >       66 </v>
  <v type="int" >       60 </v>
  <v type="int" >       70 </v>
  <v type="int" >       56 </v>
  <v type="int" >       61 </v>
  <v type="int" >      112 </v>
  <v type="int" >      116 </v>
  <v type="int" >      120 </v>
  <v type="int" >      119 </v>
  <v type="int" >      114 </v>
  <v type="int" >      111 </v>
  <v type="int" >       54 </v>
  <v type="int" >       53 </v>
  <v type="int" >       55 </v>
  <v type="int" >        4 </v>
 </varray>
 <kpoints>
  <generation param="listgenerated">
   <i name="divisions" type="int">      20 </i>
   <v>       0.00000000       0.00000000       0.00000000 </v>
   <v>       0.50000000       0.00000000       0.00000000 </v>
   <v>       0.33333333       0.33333333       0.00000000 </v>
   <v>       0.00000000       0.00000000       0.00000000 </v>
  </generation>
  <varray name="kpointlist" >
   <v>       0.00000000       0.00000000       0.00000000 </v>
   <v>       0.02631579       0.00000000       0.00000000 </v>
   <v>       0.05263158       0.00000000       0.00000000 </v>
   <v>       0.07894737       0.00000000       0.00000000 </v>
   <v>       0.10526316       0.00000000       0.00000000 </v>
   <v>       0.13157895       0.00000000       0.00000000 </v>
   <v>       0.15789474       0.00000000       0.00000000 </v>
   <v>       0.18421053       0.00000000       0.00000000 </v>
   <v>       0.21052632       0.00000000       0.00000000 </v>
   <v>       0.23684211       0.00000000       0.00000000 </v>
   <v>       0.26315789       0.00000000       0.00000000 </v>
   <v>       0.28947368       0.00000000       0.00000000 </v>
   <v>       0.31578947       0.00000000       0.00000000 </v>
   <v>       0.34210526       0.00000000       0.00000000 </v>
   <v>       0.36842105       0.00000000       0.00000000 </v>
   <v>       0.39473684       0.00000000       0.00000000 </v>
   <v>       0.42105263       0.00000000       0.00000000 </v>
   <v>       0.44736842       0.00000000       0.00000000 </v>
   <v>       0.47368421       0.00000000       0.00000000 </v>
   <v>       0.50000000       0.00000000       0.00000000 </v>
   <v>       0.50000000       0.00000000       0.00000000 </v>
   <v>       0.49122807       0.01754386       0.00000000 </v>
   <v>       0.48245614       0.03508772       0.00000000 </v>
   <v>       0.47368421       0.05263158       0.00000000 </v>
   <v>       0.46491228       0.07017544       0.00000000 </v>
   <v>       0.45614035       0.08771930       0.00000000 </v>
   <v>       0.44736842       0.10526316       0.00000000 </v>
   <v>       0.43859649       0.12280702       0.00000000 </v>
   <v>       0.42982456       0.14035088       0.00000000 </v>
   <v>       0.42105263       0.15789474       0.00000000 </v>
   <v>       0.41228070       0.17543860       0.00000000 </v>
   <v>       0.40350877       0.19298246       0.00000000 </v>
   <v>       0.39473684       0.21052632       0.00000000 </v>
   <v>       0.38596491       0.22807018       0.00000000 </v>
   <v>       0.37719298       0.24561404       0.00000000 </v>
   <v>       0.36842105       0.26315789       0.00000000 </v>
   <v>       0.35964912       0.28070175       0.00000000 </v>
   <v>       0.35087719       0.29824561       0.00000000 </v>
   <v>       0.34210526       0.31578947       0.00000000 </v>
   <v>       0.33333333       0.33333333       0.00000000 </v>
   <v>       0.33333333       0.33333333       0.00000000 </v>
   <v>       0.31578947       0.31578947       0.00000000 </v>
   <v>       0.29824561       0.29824561       0.00000000 </v>
   <v>       0.28070175       0.28070175       0.00000000 </v>
   <v>       0.26315789       0.26315789       0.00000000 </v>
   <v>       0.24561404       0.24561404       0.00000000 </v>
   <v>       0.22807018       0.22807018       0.00000000 </v>
   <v>       0.21052632       0.21052632       0.00000000 </v>
   <v>       0.19298246       0.19298246       0.00000000 </v>
   <v>       0.17543860       0.17543860       0.00000000 </v>
   <v>       0.15789474       0.15789474       0.00000000 </v>
   <v>       0.14035088       0.14035088       0.00000000 </v>
   <v>       0.12280702       0.12280702       0.00000000 </v>
   <v>       0.10526316       0.10526316       0.00000000 </v>
   <v>       0.08771930       0.08771930       0.00000000 </v>
   <v>       0.07017544       0.07017544       0.00000000 </v>
   <v>       0.05263158       0.05263158       0.00000000 </v>
   <v>       0.03508772       0.03508772       0.00000000 </v>
   <v>       0.01754386       0.01754386       0.00000000 </v>
   <v>       0.00000000       0.00000000       0.00000000 </v>
  </varray>
  <varray name="weights" >
   <v>       0.01666667 </v>
   <v>       0.01666667 </v>
   <v>       0.01666667 </v>
   <v>       0.01666667 </v>
   <v>       0.01666667 </v>
   <v>       0.01666667 </v>
   <v>       0.01666667 </v>
   <v>       0.01666667 </v>
   <v>       0.01666667 </v>
   <v>       0.01666667 </v>
   <v>       0.01666667 </v>
   <v>       0.01666667 </v>
   <v>       0.01666667 </v>
   <v>       0.01666667 </v>
   <v>       0.01666667 </v>
   <v>       0.01666667 </v>
   <v>       0.01666667 </v>
   <v>       0.01666667 </v>
   <v>       0.01666667 </v>
   <v>       0.01666667 </v>
   <v>       0.01666667 </v>
   <v>       0.01666667 </v>
   <v>       0.01666667 </v>
   <v>       0.01666667 </v>
   <v>       0.01666667 </v>
   <v>       0.01666667 </v>
   <v>       0.01666667 </v>
   <v>       0.01666667 </v>
   <v>       0.01666667 </v>
   <v>       0.01666667 </v>
   <v>       0.01666667 </v>
   <v>       0.01666667 </v>
   <v>       0.01666667 </v>
   <v>       0.01666667 </v>
   <v>       0.01666667 </v>
   <v>       0.01666667 </v>
   <v>       0.01666667 </v>
   <v>       0.01666667 </v>
   <v>       0.01666667 </v>
   <v>       0.01666667 </v>
   <v>       0.01666667 </v>
   <v>       0.01666667 </v>
   <v>       0.01666667 </v>
   <v>       0.01666667 </v>
   <v>       0.01666667 </v>
   <v>       0.01666667 </v>
   <v>       0.01666667 </v>
   <v>       0.01666667 </v>
   <v>       0.01666667 </v>
   <v>       0.01666667 </v>
   <v>       0.01666667 </v>
   <v>       0.01666667 </v>
   <v>       0.01666667 </v>
   <v>       0.01666667 </v>
   <v>       0.01666667 </v>
   <v>       0.01666667 </v>
   <v>       0.01666667 </v>
   <v>       0.01666667 </v>
   <v>       0.01666667 </v>
   <v>       0.01666667 </v>
  </varray>
 </kpoints>
 <parameters>
  <separator name="general" >
   <i type="string" name="SYSTEM">Simulation for cell shape cell volume r</i>
   <i type="logical" name="LCOMPAT"> F  </i>
  </separator>
  <separator name="electronic" >
   <i type="string" name="PREC">high</i>
   <i name="ENMAX">    500.00000000</i>
   <i name="ENAUG">    644.87300000</i>
   <i name="EDIFF">      0.00001000</i>
   <i type="int" name="IALGO">    38</i>
   <i type="int" name="IWAVPR">    10</i>
   <i type="int" name="NBANDS">   272</i>
   <i name="NELECT">    394.00000000</i>
   <i type="int" name="TURBO">     0</i>
   <i type="int" name="IRESTART">     0</i>
   <i type="int" name="NREBOOT">     0</i>
   <i type="int" name="NMIN">     0</i>
   <i name="EREF">      0.00000000</i>
   <separator name="electronic smearing" >
    <i type="int" name="ISMEAR">     0</i>
    <i name="SIGMA">      0.01000000</i>
    <i name="KSPACING">      0.50000000</i>
    <i type="logical" name="KGAMMA"> T  </i>
   </separator>
   <separator name="electronic projectors" >
    <i type="logical" name="LREAL"> T  </i>
    <v name="ROPT">     -0.00040000     -0.00040000     -0.00040000     -0.00040000</v>
    <i type="int" name="LMAXPAW">  -100</i>
    <i type="int" name="LMAXMIX">     2</i>
    <i type="logical" name="NLSPLINE"> F  </i>
   </separator>
   <separator name="electronic startup" >
    <i type="int" name="ISTART">     1</i>
    <i type="int" name="ICHARG">    11</i>
    <i type="int" name="INIWAV">     1</i>
   </separator>
   <separator name="electronic spin" >
    <i type="int" name="ISPIN">     1</i>
    <i type="logical" name="LNONCOLLINEAR"> F  </i>
    <v name="MAGMOM">      1.00000000      1.00000000      1.00000000      1.00000000      1.00000000      1.00000000      1.00000000      1.00000000      1.00000000      1.00000000      1.00000000      1.00000000      1.00000000      1.00000000      1.00000000      1.00000000      1.00000000      1.00000000      1.00000000      1.00000000
      1.00000000      1.00000000      1.00000000      1.00000000      1.00000000      1.00000000      1.00000000      1.00000000      1.00000000      1.00000000      1.00000000      1.00000000      1.00000000      1.00000000      1.00000000      1.00000000      1.00000000      1.00000000      1.00000000      1.00000000
      1.00000000      1.00000000      1.00000000      1.00000000      1.00000000      1.00000000      1.00000000      1.00000000      1.00000000      1.00000000      1.00000000      1.00000000      1.00000000      1.00000000      1.00000000      1.00000000      1.00000000      1.00000000      1.00000000      1.00000000
      1.00000000      1.00000000      1.00000000      1.00000000      1.00000000      1.00000000      1.00000000      1.00000000      1.00000000      1.00000000      1.00000000      1.00000000      1.00000000      1.00000000      1.00000000      1.00000000      1.00000000      1.00000000      1.00000000      1.00000000
      1.00000000      1.00000000      1.00000000      1.00000000      1.00000000      1.00000000      1.00000000      1.00000000      1.00000000      1.00000000      1.00000000      1.00000000      1.00000000      1.00000000      1.00000000      1.00000000      1.00000000      1.00000000      1.00000000      1.00000000
      1.00000000      1.00000000      1.00000000      1.00000000      1.00000000      1.00000000      1.00000000      1.00000000      1.00000000      1.00000000      1.00000000      1.00000000      1.00000000      1.00000000      1.00000000      1.00000000      1.00000000      1.00000000      1.00000000      1.00000000
      1.00000000      1.00000000      1.00000000      1.00000000      1.00000000      1.00000000      1.00000000      1.00000000</v>
    <i name="NUPDOWN">     -1.00000000</i>
    <i type="logical" name="LSORBIT"> F  </i>
    <v name="SAXIS">      0.00000000      0.00000000      1.00000000</v>
    <i type="logical" name="LSPIRAL"> F  </i>
    <v name="QSPIRAL">      0.00000000      0.00000000      0.00000000</v>
    <i type="logical" name="LZEROZ"> F  </i>
   </separator>
   <separator name="electronic exchange-correlation" >
    <i type="logical" name="LASPH"> F  </i>
    <i type="logical" name="LMETAGGA"> F  </i>
   </separator>
   <separator name="electronic convergence" >
    <i type="int" name="NELM">   200</i>
    <i type="int" name="NELMDL">     0</i>
    <i type="int" name="NELMIN">     2</i>
    <i name="ENINI">    500.00000000</i>
    <separator name="electronic convergence detail" >
     <i type="logical" name="LDIAG"> T  </i>
     <i type="logical" name="LSUBROT"> F  </i>
     <i name="WEIMIN">      0.00000000</i>
     <i name="EBREAK">      0.00000001</i>
     <i name="DEPER">      0.30000000</i>
     <i type="int" name="NRMM">     4</i>
     <i name="TIME">      0.40000000</i>
    </separator>
   </separator>
   <separator name="electronic mixer" >
    <i name="AMIX">      0.40000000</i>
    <i name="BMIX">      1.00000000</i>
    <i name="AMIN">      0.10000000</i>
    <i name="AMIX_MAG">      1.60000000</i>
    <i name="BMIX_MAG">      1.00000000</i>
    <separator name="electronic mixer details" >
     <i type="int" name="IMIX">     4</i>
     <i type="logical" name="MIXFIRST"> F  </i>
     <i type="int" name="MAXMIX">   -45</i>
     <i name="WC">    100.00000000</i>
     <i type="int" name="INIMIX">     1</i>
     <i type="int" name="MIXPRE">     1</i>
     <i type="int" name="MREMOVE">     5</i>
    </separator>
   </separator>
   <separator name="electronic dipolcorrection" >
    <i type="logical" name="LDIPOL"> F  </i>
    <i type="logical" name="LMONO"> F  </i>
    <i type="int" name="IDIPOL">     0</i>
    <i name="EPSILON">      1.00000000</i>
    <v name="DIPOL">   -100.00000000   -100.00000000   -100.00000000</v>
    <i name="EFIELD">      0.00000000</i>
   </separator>
  </separator>
  <separator name="grids" >
   <i type="int" name="NGX">   240</i>
   <i type="int" name="NGY">   240</i>
   <i type="int" name="NGZ">   150</i>
   <i type="int" name="NGXF">   360</i>
   <i type="int" name="NGYF">   360</i>
   <i type="int" name="NGZF">   224</i>
   <i type="logical" name="ADDGRID"> F  </i>
  </separator>
  <separator name="ionic" >
   <i type="int" name="NSW">     0</i>
   <i type="int" name="IBRION">    -1</i>
   <i type="int" name="MDALGO">     0</i>
   <i type="int" name="ISIF">     2</i>
   <i name="PSTRESS">      0.00000000</i>
   <i name="EDIFFG">     -0.01000000</i>
   <i type="int" name="NFREE">     0</i>
   <i name="POTIM">      0.30000000</i>
   <i name="SMASS">     -3.00000000</i>
   <i name="SCALEE">      1.00000000</i>
  </separator>
  <separator name="ionic md" >
   <i name="TEBEG">      0.00010000</i>
   <i name="TEEND">      0.00010000</i>
   <i type="int" name="NBLOCK">     1</i>
   <i type="int" name="KBLOCK">     1</i>
   <i type="int" name="NPACO">   256</i>
   <i name="APACO">     16.00000000</i>
  </separator>
  <separator name="symmetry" >
   <i type="int" name="ISYM">     2</i>
   <i name="SYMPREC">      0.00001000</i>
  </separator>
  <separator name="dos" >
   <i type="int" name="LORBIT">     0</i>
   <v name="RWIGS">     -1.00000000     -1.00000000     -1.00000000     -1.00000000</v>
   <i type="int" name="NEDOS">   301</i>
   <i name="EMIN">     10.00000000</i>
   <i name="EMAX">    -10.00000000</i>
   <i name="EFERMI">      0.00000000</i>
  </separator>
  <separator name="writing" >
   <i type="int" name="NWRITE">     0</i>
   <i type="logical" name="LWAVE"> F  </i>
   <i type="logical" name="LDOWNSAMPLE"> F  </i>
   <i type="logical" name="LCHARG"> F  </i>
   <i type="logical" name="LPARD"> F  </i>
   <i type="logical" name="LVTOT"> F  </i>
   <i type="logical" name="LVHAR"> F  </i>
   <i type="logical" name="LELF"> F  </i>
   <i type="logical" name="LOPTICS"> F  </i>
   <v name="STM">      0.00000000      0.00000000      0.00000000      0.00000000      0.00000000      0.00000000      0.00000000</v>
  </separator>
  <separator name="performance" >
   <i type="int" name="NPAR">    16</i>
   <i type="int" name="NSIM">     4</i>
   <i type="int" name="NBLK">    -1</i>
   <i type="logical" name="LPLANE"> T  </i>
   <i type="logical" name="LSCALAPACK"> T  </i>
   <i type="logical" name="LSCAAWARE"> F  </i>
   <i type="logical" name="LSCALU"> F  </i>
   <i type="logical" name="LASYNC"> F  </i>
   <i type="logical" name="LORBITALREAL"> F  </i>
  </separator>
  <separator name="miscellaneous" >
   <i type="int" name="IDIOT">     3</i>
   <i type="int" name="ISPECIAL">     0</i>
   <i type="logical" name="LMUSIC"> F  </i>
   <v name="POMASS">     14.00100000     16.00000000     12.01100000      1.00000000</v>
   <v name="DARWINR">      0.00000000      0.00000000      0.00000000      0.00000000</v>
   <v name="DARWINV">      1.00000000      1.00000000      1.00000000      1.00000000</v>
   <i type="logical" name="LCORR"> T  </i>
  </separator>
  <i type="logical" name="GGA_COMPAT"> T  </i>
  <i type="logical" name="LBERRY"> F  </i>
  <i type="int" name="ICORELEVEL">     0</i>
  <i type="logical" name="LDAU"> F  </i>
  <i type="int" name="I_CONSTRAINED_M">     0</i>
  <separator name="electronic exchange-correlation" >
   <i type="string" name="GGA">PE</i>
   <i type="int" name="VOSKOWN">     0</i>
   <i type="logical" name="LHFCALC"> F  </i>
   <i type="string" name="PRECFOCK"></i>
   <i type="logical" name="LSYMGRAD"> F  </i>
   <i type="logical" name="LHFONE"> F  </i>
   <i type="logical" name="LRHFCALC"> F  </i>
   <i type="logical" name="LTHOMAS"> F  </i>
   <i type="logical" name="LMODELHF"> F  </i>
   <i name="ENCUT4O">     -1.00000000</i>
   <i type="int" name="EXXOEP">     0</i>
   <i type="int" name="FOURORBIT">     0</i>
   <i name="AEXX">      0.00000000</i>
   <i name="HFALPHA">      0.00000000</i>
   <i name="MCALPHA">      0.00000000</i>
   <i name="ALDAX">      1.00000000</i>
   <i name="AGGAX">      1.00000000</i>
   <i name="ALDAC">      1.00000000</i>
   <i name="AGGAC">      1.00000000</i>
   <i type="int" name="NKREDX">     1</i>
   <i type="int" name="NKREDY">     1</i>
   <i type="int" name="NKREDZ">     1</i>
   <i type="logical" name="SHIFTRED"> F  </i>
   <i type="logical" name="ODDONLY"> F  </i>
   <i type="logical" name="EVENONLY"> F  </i>
   <i type="int" name="LMAXFOCK">     0</i>
   <i type="int" name="NMAXFOCKAE">     0</i>
   <i type="logical" name="LFOCKAEDFT"> F  </i>
   <i name="HFSCREEN">      0.00000000</i>
   <i name="HFSCREENC">      0.00000000</i>
   <i type="int" name="NBANDSGWLOW">     0</i>
  </separator>
  <separator name="vdW DFT" >
   <i type="logical" name="LUSE_VDW"> F  </i>
   <i name="Zab_VDW">     -0.84910000</i>
   <i name="PARAM1">      0.12340000</i>
   <i name="PARAM2">      1.00000000</i>
   <i name="PARAM3">      0.00000000</i>
  </separator>
  <separator name="model GW" >
   <i type="int" name="MODEL_GW">     0</i>
   <i name="MODEL_EPS0">     84.67821227</i>
   <i name="MODEL_ALPHA">      1.00000000</i>
  </separator>
  <separator name="linear response parameters" >
   <i type="logical" name="LEPSILON"> F  </i>
   <i type="logical" name="LRPA"> F  </i>
   <i type="logical" name="LNABLA"> F  </i>
   <i type="logical" name="LVEL"> F  </i>
   <i type="int" name="KINTER">     0</i>
   <i name="CSHIFT">      0.10000000</i>
   <i name="OMEGAMAX">     -1.00000000</i>
   <i name="DEG_THRESHOLD">      0.00200000</i>
   <i name="RTIME">     -0.10000000</i>
   <i name="WPLASMAI">      0.00000000</i>
   <v name="DFIELD">      0.00000000      0.00000000      0.00000000</v>
   <v name="WPLASMA">      0.00000000      0.00000000      0.00000000      0.00000000      0.00000000      0.00000000      0.00000000      0.00000000      0.00000000</v>
  </separator>
  <separator name="orbital magnetization" >
   <i type="logical" name="NUCIND"> F  </i>
   <v name="MAGPOS">      0.00000000      0.00000000      0.00000000</v>
   <i type="logical" name="LNICSALL"> T  </i>
   <i type="logical" name="ORBITALMAG"> F  </i>
   <i type="logical" name="LMAGBLOCH"> F  </i>
   <i type="logical" name="LCHIMAG"> F  </i>
   <i type="logical" name="LGAUGE"> T  </i>
   <i type="int" name="MAGATOM">     0</i>
   <v name="MAGDIPOL">      0.00000000      0.00000000      0.00000000</v>
   <v name="AVECCONST">      0.00000000      0.00000000      0.00000000</v>
  </separator>
  <separator name="response functions" >
   <i type="logical" name="LADDER"> F  </i>
   <i type="logical" name="LRPAFORCE"> F  </i>
   <i type="logical" name="LFXC"> F  </i>
   <i type="logical" name="LHARTREE"> T  </i>
   <i type="int" name="IBSE">     0</i>
   <v type="int" name="KPOINT">    -1     0     0     0</v>
   <i type="logical" name="LTCTE"> F  </i>
   <i type="logical" name="LTETE"> F  </i>
   <i type="logical" name="LTRIPLET"> F  </i>
   <i type="logical" name="LFXCEPS"> F  </i>
   <i type="logical" name="LFXHEG"> F  </i>
   <i type="int" name="NATURALO">     2</i>
   <i type="logical" name="L2ORDER"> F  </i>
   <i type="logical" name="LMP2LT"> F  </i>
   <i type="logical" name="LUSEW"> F  </i>
   <i name="ENCUTGW">     -2.00000000</i>
   <i name="ENCUTGWSOFT">     -2.00000000</i>
   <i name="ENCUTLF">     -1.00000000</i>
   <i type="int" name="LMAXMP2">    -1</i>
   <i name="SCISSOR">      0.00000000</i>
   <i type="int" name="NOMEGA">     0</i>
   <i type="int" name="NOMEGAR">     0</i>
   <i type="int" name="NBANDSGW">    -1</i>
   <i type="int" name="NBANDSO">    -1</i>
   <i type="int" name="NBANDSV">    -1</i>
   <i type="int" name="NELM">   200</i>
   <i type="int" name="NELMHF">     1</i>
   <i type="int" name="DIM">     3</i>
   <i type="int" name="ANTIRES">     0</i>
   <i name="OMEGAMAX">    -30.00000000</i>
   <i name="OMEGAMIN">    -30.00000000</i>
   <i name="OMEGATL">   -200.00000000</i>
   <i type="int" name="OMEGAGRID">   140</i>
   <i name="CSHIFT">     -0.10000000</i>
   <i type="logical" name="SELFENERGY"> F  </i>
   <i type="logical" name="LSPECTRAL"> F  </i>
   <i type="logical" name="LSPECTRALGW"> F  </i>
   <i type="logical" name="LSINGLES"> F  </i>
   <i type="logical" name="LFERMIGW"> F  </i>
   <i type="logical" name="ODDONLYGW"> F  </i>
   <i type="logical" name="EVENONLYGW"> F  </i>
   <i type="int" name="NKREDLFX">     1</i>
   <i type="int" name="NKREDLFY">     1</i>
   <i type="int" name="NKREDLFZ">     1</i>
   <i type="int" name="MAXMEM">  2800</i>
   <i type="int" name="TELESCOPE">     0</i>
   <i type="int" name="TAUPAR">     1</i>
   <i type="int" name="OMEGAPAR">    -1</i>
   <i name="LAMBDA">      1.00000000</i>
  </separator>
  <separator name="External order field" >
   <i name="OFIELD_KAPPA">      0.00000000</i>
   <v name="OFIELD_K">      0.00000000      0.00000000      0.00000000</v>
   <i name="OFIELD_Q6_NEAR">      0.00000000</i>
   <i name="OFIELD_Q6_FAR">      0.00000000</i>
   <i name="OFIELD_A">      0.00000000</i>
  </separator>
  <separator name="solvation model" >
   <i type="logical" name="LSOL"> F  </i>
  </separator>
 </parameters>
 <atominfo>
  <atoms>     128 </atoms>
  <types>       4 </types>
  <array name="atoms" >
   <dimension dim="1">ion</dimension>
   <field type="string">element</field>
   <field type="int">atomtype</field>
   <set>
    <rc><c>N </c><c>   1</c></rc>
    <rc><c>N </c><c>   1</c></rc>
    <rc><c>N </c><c>   1</c></rc>
    <rc><c>N </c><c>   1</c></rc>
    <rc><c>N </c><c>   1</c></rc>
    <rc><c>O </c><c>   2</c></rc>
    <rc><c>O </c><c>   2</c></rc>
    <rc><c>O </c><c>   2</c></rc>
    <rc><c>O </c><c>   2</c></rc>
    <rc><c>O </c><c>   2</c></rc>
    <rc><c>O </c><c>   2</c></rc>
    <rc><c>C </c><c>   3</c></rc>
    <rc><c>C </c><c>   3</c></rc>
    <rc><c>C </c><c>   3</c></rc>
    <rc><c>C </c><c>   3</c></rc>
    <rc><c>C </c><c>   3</c></rc>
    <rc><c>C </c><c>   3</c></rc>
    <rc><c>C </c><c>   3</c></rc>
    <rc><c>C </c><c>   3</c></rc>
    <rc><c>C </c><c>   3</c></rc>
    <rc><c>C </c><c>   3</c></rc>
    <rc><c>C </c><c>   3</c></rc>
    <rc><c>C </c><c>   3</c></rc>
    <rc><c>C </c><c>   3</c></rc>
    <rc><c>C </c><c>   3</c></rc>
    <rc><c>C </c><c>   3</c></rc>
    <rc><c>C </c><c>   3</c></rc>
    <rc><c>C </c><c>   3</c></rc>
    <rc><c>C </c><c>   3</c></rc>
    <rc><c>C </c><c>   3</c></rc>
    <rc><c>C </c><c>   3</c></rc>
    <rc><c>C </c><c>   3</c></rc>
    <rc><c>C </c><c>   3</c></rc>
    <rc><c>C </c><c>   3</c></rc>
    <rc><c>C </c><c>   3</c></rc>
    <rc><c>C </c><c>   3</c></rc>
    <rc><c>C </c><c>   3</c></rc>
    <rc><c>C </c><c>   3</c></rc>
    <rc><c>C </c><c>   3</c></rc>
    <rc><c>C </c><c>   3</c></rc>
    <rc><c>C </c><c>   3</c></rc>
    <rc><c>C </c><c>   3</c></rc>
    <rc><c>C </c><c>   3</c></rc>
    <rc><c>C </c><c>   3</c></rc>
    <rc><c>C </c><c>   3</c></rc>
    <rc><c>C </c><c>   3</c></rc>
    <rc><c>C </c><c>   3</c></rc>
    <rc><c>C </c><c>   3</c></rc>
    <rc><c>C </c><c>   3</c></rc>
    <rc><c>C </c><c>   3</c></rc>
    <rc><c>C </c><c>   3</c></rc>
    <rc><c>C </c><c>   3</c></rc>
    <rc><c>C </c><c>   3</c></rc>
    <rc><c>C </c><c>   3</c></rc>
    <rc><c>C </c><c>   3</c></rc>
    <rc><c>C </c><c>   3</c></rc>
    <rc><c>C </c><c>   3</c></rc>
    <rc><c>C </c><c>   3</c></rc>
    <rc><c>C </c><c>   3</c></rc>
    <rc><c>C </c><c>   3</c></rc>
    <rc><c>C </c><c>   3</c></rc>
    <rc><c>C </c><c>   3</c></rc>
    <rc><c>C </c><c>   3</c></rc>
    <rc><c>C </c><c>   3</c></rc>
    <rc><c>C </c><c>   3</c></rc>
    <rc><c>C </c><c>   3</c></rc>
    <rc><c>C </c><c>   3</c></rc>
    <rc><c>C </c><c>   3</c></rc>
    <rc><c>C </c><c>   3</c></rc>
    <rc><c>C </c><c>   3</c></rc>
    <rc><c>C </c><c>   3</c></rc>
    <rc><c>C </c><c>   3</c></rc>
    <rc><c>C </c><c>   3</c></rc>
    <rc><c>C </c><c>   3</c></rc>
    <rc><c>C </c><c>   3</c></rc>
    <rc><c>C </c><c>   3</c></rc>
    <rc><c>C </c><c>   3</c></rc>
    <rc><c>C </c><c>   3</c></rc>
    <rc><c>C </c><c>   3</c></rc>
    <rc><c>C </c><c>   3</c></rc>
    <rc><c>C </c><c>   3</c></rc>
    <rc><c>C </c><c>   3</c></rc>
    <rc><c>C </c><c>   3</c></rc>
    <rc><c>H </c><c>   4</c></rc>
    <rc><c>H </c><c>   4</c></rc>
    <rc><c>H </c><c>   4</c></rc>
    <rc><c>H </c><c>   4</c></rc>
    <rc><c>H </c><c>   4</c></rc>
    <rc><c>H </c><c>   4</c></rc>
    <rc><c>H </c><c>   4</c></rc>
    <rc><c>H </c><c>   4</c></rc>
    <rc><c>H </c><c>   4</c></rc>
    <rc><c>H </c><c>   4</c></rc>
    <rc><c>H </c><c>   4</c></rc>
    <rc><c>H </c><c>   4</c></rc>
    <rc><c>H </c><c>   4</c></rc>
    <rc><c>H </c><c>   4</c></rc>
    <rc><c>H </c><c>   4</c></rc>
    <rc><c>H </c><c>   4</c></rc>
    <rc><c>H </c><c>   4</c></rc>
    <rc><c>H </c><c>   4</c></rc>
    <rc><c>H </c><c>   4</c></rc>
    <rc><c>H </c><c>   4</c></rc>
    <rc><c>H </c><c>   4</c></rc>
    <rc><c>H </c><c>   4</c></rc>
    <rc><c>H </c><c>   4</c></rc>
    <rc><c>H </c><c>   4</c></rc>
    <rc><c>H </c><c>   4</c></rc>
    <rc><c>H </c><c>   4</c></rc>
    <rc><c>H </c><c>   4</c></rc>
    <rc><c>H </c><c>   4</c></rc>
    <rc><c>H </c><c>   4</c></rc>
    <rc><c>H </c><c>   4</c></rc>
    <rc><c>H </c><c>   4</c></rc>
    <rc><c>H </c><c>   4</c></rc>
    <rc><c>H </c><c>   4</c></rc>
    <rc><c>H </c><c>   4</c></rc>
    <rc><c>H </c><c>   4</c></rc>
    <rc><c>H </c><c>   4</c></rc>
    <rc><c>H </c><c>   4</c></rc>
    <rc><c>H </c><c>   4</c></rc>
    <rc><c>H </c><c>   4</c></rc>
    <rc><c>H </c><c>   4</c></rc>
    <rc><c>H </c><c>   4</c></rc>
    <rc><c>H </c><c>   4</c></rc>
    <rc><c>H </c><c>   4</c></rc>
    <rc><c>H </c><c>   4</c></rc>
    <rc><c>H </c><c>   4</c></rc>
   </set>
  </array>
  <array name="atomtypes" >
   <dimension dim="1">type</dimension>
   <field type="int">atomspertype</field>
   <field type="string">element</field>
   <field>mass</field>
   <field>valence</field>
   <field type="string">pseudopotential</field>
   <set>
    <rc><c>   5</c><c>N </c><c>     14.00100000</c><c>      5.00000000</c><c>  PAW_PBE N 08Apr2002                   </c></rc>
    <rc><c>   6</c><c>O </c><c>     16.00000000</c><c>      6.00000000</c><c>  PAW_PBE O 08Apr2002                   </c></rc>
    <rc><c>  72</c><c>C </c><c>     12.01100000</c><c>      4.00000000</c><c>  PAW_PBE C 08Apr2002                   </c></rc>
    <rc><c>  45</c><c>H </c><c>      1.00000000</c><c>      1.00000000</c><c>  PAW_PBE H 15Jun2001                   </c></rc>
   </set>
  </array>
 </atominfo>
 <structure name="initialpos" >
  <crystal>
   <varray name="basis" >
    <v>      32.28927424      -0.01588653       0.00000000 </v>
    <v>     -16.15839415      27.98114811       0.00000000 </v>
    <v>       0.00000000       0.00000000      20.00000000 </v>
   </varray>
   <i name="volume">  18064.68528403 </i>
   <varray name="rec_basis" >
    <v>       0.03097884       0.01788948       0.00000000 </v>
    <v>       0.00001759       0.03574850       0.00000000 </v>
    <v>       0.00000000       0.00000000       0.05000000 </v>
   </varray>
  </crystal>
  <varray name="positions" >
   <v>       0.35825039       0.67496632       0.52008972 </v>
   <v>       0.49919235       0.04004966       0.63976376 </v>
   <v>       0.58188650       0.53344513       0.63985398 </v>
   <v>       0.69124323       0.34152896       0.52459241 </v>
   <v>       0.99286268       0.45100619       0.63930918 </v>
   <v>       0.45688681       0.01107840       0.62661030 </v>
   <v>       0.57927004       0.51717392       0.69694491 </v>
   <v>       0.51579726       0.05352909       0.69676220 </v>
   <v>       0.59505692       0.57563468       0.62640324 </v>
   <v>       0.97937819       0.45396515       0.69637951 </v>
   <v>       0.02183453       0.43773573       0.62600784 </v>
   <v>       0.30762034       0.64995803       0.52175047 </v>
   <v>       0.28173208       0.66380199       0.47987212 </v>
   <v>       0.23194857       0.63899145       0.48128764 </v>
   <v>       0.20654007       0.60031683       0.52509449 </v>
   <v>       0.23277592       0.58703036       0.56723047 </v>
   <v>       0.28253755       0.61110703       0.56534730 </v>
   <v>       0.05217676       0.52097468       0.53034905 </v>
   <v>       0.15363821       0.57388562       0.52667420 </v>
   <v>       0.12866671       0.56733101       0.58692257 </v>
   <v>       0.07893062       0.54189427       0.58863055 </v>
   <v>       0.07717955       0.52777808       0.47001870 </v>
   <v>       0.12693052       0.55411820       0.46809627 </v>
   <v>       0.38380024       0.72555011       0.52196061 </v>
   <v>       0.38324817       0.64940344       0.52169539 </v>
   <v>       0.42329274       0.75160368       0.47971008 </v>
   <v>       0.44809686       0.80134650       0.48126051 </v>
   <v>       0.43489759       0.82653866       0.52555196 </v>
   <v>       0.39563407       0.80012920       0.56808502 </v>
   <v>       0.37011638       0.75040271       0.56608433 </v>
   <v>       0.42221080       0.66329065       0.56515380 </v>
   <v>       0.44622404       0.63758720       0.56710093 </v>
   <v>       0.43277198       0.59794519       0.52516045 </v>
   <v>       0.39402702       0.58459738       0.48142508 </v>
   <v>       0.36927566       0.60958351       0.47994889 </v>
   <v>       0.50956170       0.98079217       0.53065086 </v>
   <v>       0.46117983       0.87940283       0.52712644 </v>
   <v>       0.47979082       0.90442555       0.58728354 </v>
   <v>       0.51189987       0.52282990       0.53073011 </v>
   <v>       0.45911705       0.57143125       0.52685671 </v>
   <v>       0.46544143       0.55287009       0.58710734 </v>
   <v>       0.49081389       0.52854496       0.58890321 </v>
   <v>       0.49112225       0.95574014       0.47042490 </v>
   <v>       0.46779573       0.90603065       0.46857129 </v>
   <v>       0.47903245       0.56459034       0.46837395 </v>
   <v>       0.50400414       0.95412836       0.58890950 </v>
   <v>       0.50529851       0.54114602       0.47038606 </v>
   <v>       0.53499084       0.03357504       0.53100696 </v>
   <v>       0.53256267       0.06174910       0.58290534 </v>
   <v>       0.53922699       0.49738303       0.53130095 </v>
   <v>       0.56576789       0.05951531       0.47791784 </v>
   <v>       0.53432245       0.46654564       0.47830657 </v>
   <v>       0.66583397       0.29092560       0.52549522 </v>
   <v>       0.66596363       0.36683778       0.52566854 </v>
   <v>       0.74186289       0.36677790       0.52546166 </v>
   <v>       0.76717040       0.34976956       0.56276244 </v>
   <v>       0.81686396       0.37458681       0.56318859 </v>
   <v>       0.84348463       0.41767701       0.52769982 </v>
   <v>       0.81766166       0.43447627       0.49095696 </v>
   <v>       0.76795811       0.40950680       0.48921316 </v>
   <v>       0.62361457       0.26563640       0.56308011 </v>
   <v>       0.59872114       0.21597294       0.56357580 </v>
   <v>       0.61506912       0.18935111       0.52785868 </v>
   <v>       0.65759408       0.21516110       0.49081959 </v>
   <v>       0.68233771       0.26483114       0.48902162 </v>
   <v>       0.62333702       0.35030956       0.48916826 </v>
   <v>       0.59831027       0.37494047       0.49107035 </v>
   <v>       0.61496490       0.41737031       0.52823518 </v>
   <v>       0.65794089       0.43371753       0.56402799 </v>
   <v>       0.68280135       0.40892299       0.56344214 </v>
   <v>       0.58851740       0.13659206       0.52906717 </v>
   <v>       0.55914328       0.11142541       0.58337019 </v>
   <v>       0.58870609       0.44385898       0.52945347 </v>
   <v>       0.56989077       0.49986760       0.58319829 </v>
   <v>       0.59294588       0.47325571       0.58371018 </v>
   <v>       0.89627172       0.44394292       0.52888933 </v>
   <v>       0.99935456       0.49358429       0.53079502 </v>
   <v>       0.97117712       0.46280161       0.58258434 </v>
   <v>       0.92146609       0.43961180       0.58304278 </v>
   <v>       0.59103376       0.10917977       0.47612349 </v>
   <v>       0.55875015       0.44131909       0.47650772 </v>
   <v>       0.92368031       0.47409326       0.47610516 </v>
   <v>       0.97338231       0.49855813       0.47787671 </v>
   <v>       0.30105577       0.69409799       0.44620605 </v>
   <v>       0.21223670       0.65001826       0.44840851 </v>
   <v>       0.30244198       0.60009423       0.59778213 </v>
   <v>       0.21367975       0.55693385       0.60135768 </v>
   <v>       0.14870005       0.58334934       0.63274481 </v>
   <v>       0.06076061       0.53893555       0.63588417 </v>
   <v>       0.05739886       0.51101686       0.42431967 </v>
   <v>       0.14561222       0.55815750       0.42095302 </v>
   <v>       0.47864033       0.82120409       0.44806594 </v>
   <v>       0.43416827       0.73243328       0.44561399 </v>
   <v>       0.33937407       0.73033557       0.59880340 </v>
   <v>       0.38466916       0.81904370       0.60258499 </v>
   <v>       0.43333379       0.69428968       0.59745537 </v>
   <v>       0.47638900       0.64865910       0.60114257 </v>
   <v>       0.38290092       0.55379027       0.44865292 </v>
   <v>       0.33891150       0.59855149       0.44636190 </v>
   <v>       0.47605652       0.88447822       0.63307552 </v>
   <v>       0.44929993       0.55679399       0.63285102 </v>
   <v>       0.49359591       0.51320884       0.63613277 </v>
   <v>       0.49390024       0.97544988       0.42475580 </v>
   <v>       0.45299831       0.88730398       0.42150369 </v>
   <v>       0.47516150       0.57934504       0.42124035 </v>
   <v>       0.51938236       0.97234213       0.63607409 </v>
   <v>       0.57008331       0.03959474       0.43710059 </v>
   <v>       0.52215754       0.53819921       0.42474144 </v>
   <v>       0.51003600       0.46220317       0.43752540 </v>
   <v>       0.56555476       0.19756780       0.59214532 </v>
   <v>       0.61017499       0.28519573       0.59161084 </v>
   <v>       0.71506855       0.28381977       0.45969996 </v>
   <v>       0.67201937       0.19610852       0.46314098 </v>
   <v>       0.74759325       0.31667661       0.59112077 </v>
   <v>       0.83529569       0.35976229       0.59148951 </v>
   <v>       0.60967277       0.31766183       0.45973380 </v>
   <v>       0.56482075       0.36051121       0.46334400 </v>
   <v>       0.67263928       0.46680492       0.59270928 </v>
   <v>       0.71579105       0.42232641       0.59206159 </v>
   <v>       0.74893917       0.42329157       0.46010687 </v>
   <v>       0.83672064       0.46804217       0.46344581 </v>
   <v>       0.55629516       0.13008445       0.62693295 </v>
   <v>       0.61451558       0.47616639       0.62724429 </v>
   <v>       0.90280152       0.41793530       0.62650268 </v>
   <v>       0.61300027       0.12699718       0.43243448 </v>
   <v>       0.55461738       0.41939248       0.43281009 </v>
   <v>       0.90584228       0.47837504       0.43256269 </v>
   <v>       0.99331439       0.52296611       0.43721019 </v>
  </varray>
 </structure>
 <calculation>
  <scstep>
   <time name="dav">  851.36  861.57</time>
   <time name="total">  851.66  861.88</time>
   <energy>
    <i name="alphaZ">     40.02160680 </i>
    <i name="ewald">  50788.61570635 </i>
    <i name="hartreedc"> -63078.98567843 </i>
    <i name="XCdc">   1379.75052940 </i>
    <i name="pawpsdc">  35729.46839411 </i>
    <i name="pawaedc"> -35798.34129118 </i>
    <i name="eentropy">     -0.00000000 </i>
    <i name="bandstr">  -5020.31698331 </i>
    <i name="atom">  15073.38855978 </i>
    <i name="e_fr_energy">   -886.39915647 </i>
    <i name="e_wo_entrp">   -886.39915647 </i>
    <i name="e_0_energy">   -886.39915647 </i>
   </energy>
  </scstep>
  <scstep>
   <time name="dav">  937.48  948.58</time>
   <time name="total">  937.48  948.58</time>
   <energy>
    <i name="e_fr_energy">   -886.79478071 </i>
    <i name="e_wo_entrp">   -886.79478071 </i>
    <i name="e_0_energy">   -886.79478071 </i>
   </energy>
  </scstep>
  <scstep>
   <time name="dav"> 1068.84 1081.73</time>
   <time name="total"> 1068.85 1081.73</time>
   <energy>
    <i name="e_fr_energy">   -886.80666849 </i>
    <i name="e_wo_entrp">   -886.80666849 </i>
    <i name="e_0_energy">   -886.80666849 </i>
   </energy>
  </scstep>
  <scstep>
   <time name="dav">  942.00  953.50</time>
   <time name="total">  942.00  953.50</time>
   <energy>
    <i name="e_fr_energy">   -886.80685184 </i>
    <i name="e_wo_entrp">   -886.80685184 </i>
    <i name="e_0_energy">   -886.80685184 </i>
   </energy>
  </scstep>
  <scstep>
   <time name="dav">  883.90  894.49</time>
   <time name="total">  883.91  894.50</time>
   <energy>
    <i name="alphaZ">     40.02160680 </i>
    <i name="ewald">  50788.61570635 </i>
    <i name="hartreedc"> -63078.98567843 </i>
    <i name="XCdc">   1379.75052940 </i>
    <i name="pawpsdc">  35729.46839411 </i>
    <i name="pawaedc"> -35798.34129118 </i>
    <i name="eentropy">     -0.00000000 </i>
    <i name="bandstr">  -5020.72468846 </i>
    <i name="atom">  15073.38855978 </i>
    <i name="e_fr_energy">   -886.80686162 </i>
    <i name="e_wo_entrp">   -886.80686162 </i>
    <i name="e_0_energy">   -886.80686162 </i>
   </energy>
  </scstep>
  <structure>
   <crystal>
    <varray name="basis" >
     <v>      32.28927424      -0.01588653       0.00000000 </v>
     <v>     -16.15839415      27.98114811       0.00000000 </v>
     <v>       0.00000000       0.00000000      20.00000000 </v>
    </varray>
    <i name="volume">  18064.68528403 </i>
    <varray name="rec_basis" >
     <v>       0.03097884       0.01788948       0.00000000 </v>
     <v>       0.00001759       0.03574850       0.00000000 </v>
     <v>       0.00000000       0.00000000       0.05000000 </v>
    </varray>
   </crystal>
   <varray name="positions" >
    <v>       0.35825039       0.67496632       0.52008972 </v>
    <v>       0.49919235       0.04004966       0.63976376 </v>
    <v>       0.58188650       0.53344513       0.63985398 </v>
    <v>       0.69124323       0.34152896       0.52459241 </v>
    <v>       0.99286268       0.45100619       0.63930918 </v>
    <v>       0.45688681       0.01107840       0.62661030 </v>
    <v>       0.57927004       0.51717392       0.69694491 </v>
    <v>       0.51579726       0.05352909       0.69676220 </v>
    <v>       0.59505692       0.57563468       0.62640324 </v>
    <v>       0.97937819       0.45396515       0.69637951 </v>
    <v>       0.02183453       0.43773573       0.62600784 </v>
    <v>       0.30762034       0.64995803       0.52175047 </v>
    <v>       0.28173208       0.66380199       0.47987212 </v>
    <v>       0.23194857       0.63899145       0.48128764 </v>
    <v>       0.20654007       0.60031683       0.52509449 </v>
    <v>       0.23277592       0.58703036       0.56723047 </v>
    <v>       0.28253755       0.61110703       0.56534730 </v>
    <v>       0.05217676       0.52097468       0.53034905 </v>
    <v>       0.15363821       0.57388562       0.52667420 </v>
    <v>       0.12866671       0.56733101       0.58692257 </v>
    <v>       0.07893062       0.54189427       0.58863055 </v>
    <v>       0.07717955       0.52777808       0.47001870 </v>
    <v>       0.12693052       0.55411820       0.46809627 </v>
    <v>       0.38380024       0.72555011       0.52196061 </v>
    <v>       0.38324817       0.64940344       0.52169539 </v>
    <v>       0.42329274       0.75160368       0.47971008 </v>
    <v>       0.44809686       0.80134650       0.48126051 </v>
    <v>       0.43489759       0.82653866       0.52555196 </v>
    <v>       0.39563407       0.80012920       0.56808502 </v>
    <v>       0.37011638       0.75040271       0.56608433 </v>
    <v>       0.42221080       0.66329065       0.56515380 </v>
    <v>       0.44622404       0.63758720       0.56710093 </v>
    <v>       0.43277198       0.59794519       0.52516045 </v>
    <v>       0.39402702       0.58459738       0.48142508 </v>
    <v>       0.36927566       0.60958351       0.47994889 </v>
    <v>       0.50956170       0.98079217       0.53065086 </v>
    <v>       0.46117983       0.87940283       0.52712644 </v>
    <v>       0.47979082       0.90442555       0.58728354 </v>
    <v>       0.51189987       0.52282990       0.53073011 </v>
    <v>       0.45911705       0.57143125       0.52685671 </v>
    <v>       0.46544143       0.55287009       0.58710734 </v>
    <v>       0.49081389       0.52854496       0.58890321 </v>
    <v>       0.49112225       0.95574014       0.47042490 </v>
    <v>       0.46779573       0.90603065       0.46857129 </v>
    <v>       0.47903245       0.56459034       0.46837395 </v>
    <v>       0.50400414       0.95412836       0.58890950 </v>
    <v>       0.50529851       0.54114602       0.47038606 </v>
    <v>       0.53499084       0.03357504       0.53100696 </v>
    <v>       0.53256267       0.06174910       0.58290534 </v>
    <v>       0.53922699       0.49738303       0.53130095 </v>
    <v>       0.56576789       0.05951531       0.47791784 </v>
    <v>       0.53432245       0.46654564       0.47830657 </v>
    <v>       0.66583397       0.29092560       0.52549522 </v>
    <v>       0.66596363       0.36683778       0.52566854 </v>
    <v>       0.74186289       0.36677790       0.52546166 </v>
    <v>       0.76717040       0.34976956       0.56276244 </v>
    <v>       0.81686396       0.37458681       0.56318859 </v>
    <v>       0.84348463       0.41767701       0.52769982 </v>
    <v>       0.81766166       0.43447627       0.49095696 </v>
    <v>       0.76795811       0.40950680       0.48921316 </v>
    <v>       0.62361457       0.26563640       0.56308011 </v>
    <v>       0.59872114       0.21597294       0.56357580 </v>
    <v>       0.61506912       0.18935111       0.52785868 </v>
    <v>       0.65759408       0.21516110       0.49081959 </v>
    <v>       0.68233771       0.26483114       0.48902162 </v>
    <v>       0.62333702       0.35030956       0.48916826 </v>
    <v>       0.59831027       0.37494047       0.49107035 </v>
    <v>       0.61496490       0.41737031       0.52823518 </v>
    <v>       0.65794089       0.43371753       0.56402799 </v>
    <v>       0.68280135       0.40892299       0.56344214 </v>
    <v>       0.58851740       0.13659206       0.52906717 </v>
    <v>       0.55914328       0.11142541       0.58337019 </v>
    <v>       0.58870609       0.44385898       0.52945347 </v>
    <v>       0.56989077       0.49986760       0.58319829 </v>
    <v>       0.59294588       0.47325571       0.58371018 </v>
    <v>       0.89627172       0.44394292       0.52888933 </v>
    <v>       0.99935456       0.49358429       0.53079502 </v>
    <v>       0.97117712       0.46280161       0.58258434 </v>
    <v>       0.92146609       0.43961180       0.58304278 </v>
    <v>       0.59103376       0.10917977       0.47612349 </v>
    <v>       0.55875015       0.44131909       0.47650772 </v>
    <v>       0.92368031       0.47409326       0.47610516 </v>
    <v>       0.97338231       0.49855813       0.47787671 </v>
    <v>       0.30105577       0.69409799       0.44620605 </v>
    <v>       0.21223670       0.65001826       0.44840851 </v>
    <v>       0.30244198       0.60009423       0.59778213 </v>
    <v>       0.21367975       0.55693385       0.60135768 </v>
    <v>       0.14870005       0.58334934       0.63274481 </v>
    <v>       0.06076061       0.53893555       0.63588417 </v>
    <v>       0.05739886       0.51101686       0.42431967 </v>
    <v>       0.14561222       0.55815750       0.42095302 </v>
    <v>       0.47864033       0.82120409       0.44806594 </v>
    <v>       0.43416827       0.73243328       0.44561399 </v>
    <v>       0.33937407       0.73033557       0.59880340 </v>
    <v>       0.38466916       0.81904370       0.60258499 </v>
    <v>       0.43333379       0.69428968       0.59745537 </v>
    <v>       0.47638900       0.64865910       0.60114257 </v>
    <v>       0.38290092       0.55379027       0.44865292 </v>
    <v>       0.33891150       0.59855149       0.44636190 </v>
    <v>       0.47605652       0.88447822       0.63307552 </v>
    <v>       0.44929993       0.55679399       0.63285102 </v>
    <v>       0.49359591       0.51320884       0.63613277 </v>
    <v>       0.49390024       0.97544988       0.42475580 </v>
    <v>       0.45299831       0.88730398       0.42150369 </v>
    <v>       0.47516150       0.57934504       0.42124035 </v>
    <v>       0.51938236       0.97234213       0.63607409 </v>
    <v>       0.57008331       0.03959474       0.43710059 </v>
    <v>       0.52215754       0.53819921       0.42474144 </v>
    <v>       0.51003600       0.46220317       0.43752540 </v>
    <v>       0.56555476       0.19756780       0.59214532 </v>
    <v>       0.61017499       0.28519573       0.59161084 </v>
    <v>       0.71506855       0.28381977       0.45969996 </v>
    <v>       0.67201937       0.19610852       0.46314098 </v>
    <v>       0.74759325       0.31667661       0.59112077 </v>
    <v>       0.83529569       0.35976229       0.59148951 </v>
    <v>       0.60967277       0.31766183       0.45973380 </v>
    <v>       0.56482075       0.36051121       0.46334400 </v>
    <v>       0.67263928       0.46680492       0.59270928 </v>
    <v>       0.71579105       0.42232641       0.59206159 </v>
    <v>       0.74893917       0.42329157       0.46010687 </v>
    <v>       0.83672064       0.46804217       0.46344581 </v>
    <v>       0.55629516       0.13008445       0.62693295 </v>
    <v>       0.61451558       0.47616639       0.62724429 </v>
    <v>       0.90280152       0.41793530       0.62650268 </v>
    <v>       0.61300027       0.12699718       0.43243448 </v>
    <v>       0.55461738       0.41939248       0.43281009 </v>
    <v>       0.90584228       0.47837504       0.43256269 </v>
    <v>       0.99331439       0.52296611       0.43721019 </v>
   </varray>
  </structure>
  <varray name="forces" >
   <v>      -0.00342512      -0.00282334      -0.00200649 </v>
   <v>       0.00034855       0.00152356      -0.00672184 </v>
   <v>       0.00291513      -0.00642422       0.00516149 </v>
   <v>       0.00288439      -0.00031052       0.00177187 </v>
   <v>      -0.00755111      -0.00028653       0.00399140 </v>
   <v>      -0.00325168      -0.00297169      -0.00233692 </v>
   <v>      -0.00278590       0.00304392      -0.00768265 </v>
   <v>      -0.00240606       0.00704565       0.00451504 </v>
   <v>      -0.00260300       0.00174436      -0.00214765 </v>
   <v>      -0.00175174       0.00119095       0.00088293 </v>
   <v>       0.00118850      -0.00076675      -0.00152547 </v>
   <v>       0.00693849       0.00137054       0.00070986 </v>
   <v>      -0.00206543      -0.00120763       0.00035989 </v>
   <v>       0.00220710       0.00033425       0.00147103 </v>
   <v>      -0.00108485      -0.00149157       0.00020813 </v>
   <v>       0.00123989       0.00108349       0.00190495 </v>
   <v>      -0.00005885      -0.00212004      -0.00051135 </v>
   <v>      -0.00571482      -0.00307338      -0.00181090 </v>
   <v>       0.00380340       0.00158313       0.00077875 </v>
   <v>       0.00367244      -0.00107777       0.00384928 </v>
   <v>       0.00032153      -0.00162802       0.00369349 </v>
   <v>       0.00108151       0.00403850       0.00267871 </v>
   <v>      -0.00226638      -0.00012196      -0.00120658 </v>
   <v>       0.00055753      -0.00329519       0.00040511 </v>
   <v>      -0.00020356       0.00099148       0.00175277 </v>
   <v>       0.00207474      -0.00076770      -0.00114678 </v>
   <v>       0.00421129       0.00044050      -0.00264209 </v>
   <v>      -0.00104545       0.00555646      -0.00003815 </v>
   <v>      -0.00160176       0.00083393       0.00317309 </v>
   <v>      -0.00400298      -0.00097467       0.00113099 </v>
   <v>       0.00116657      -0.00063463      -0.00129247 </v>
   <v>      -0.00244193      -0.00026964       0.00075363 </v>
   <v>       0.00337070      -0.00181347       0.00108359 </v>
   <v>      -0.00004650       0.00110638       0.00154489 </v>
   <v>      -0.00017845       0.00023999      -0.00023403 </v>
   <v>       0.00049414       0.00523566      -0.00238662 </v>
   <v>      -0.00058252      -0.00170723      -0.00126213 </v>
   <v>      -0.00055029      -0.00037481       0.00035250 </v>
   <v>       0.00005757      -0.00031678      -0.00091996 </v>
   <v>       0.00110724       0.00049463       0.00234452 </v>
   <v>      -0.00071310       0.00259417       0.00121396 </v>
   <v>       0.00091567       0.00185058       0.00453885 </v>
   <v>       0.00169906      -0.00026683      -0.00299488 </v>
   <v>       0.00292311      -0.00340102       0.00206145 </v>
   <v>      -0.00306144      -0.00081130      -0.00161521 </v>
   <v>      -0.00031116      -0.00210775       0.00123937 </v>
   <v>      -0.00014558      -0.00060483      -0.00126376 </v>
   <v>       0.00132585      -0.00102414       0.00158765 </v>
   <v>      -0.00087396      -0.00431049       0.00173099 </v>
   <v>       0.00068277      -0.00035133       0.00295057 </v>
   <v>       0.00369821      -0.00532594      -0.00494390 </v>
   <v>      -0.00327145      -0.00065713      -0.00703951 </v>
   <v>      -0.00176645       0.00138777       0.00208592 </v>
   <v>      -0.00020966      -0.00199398      -0.00252332 </v>
   <v>      -0.00072945       0.00124982      -0.00125510 </v>
   <v>       0.00188657       0.00017799       0.00053679 </v>
   <v>      -0.00072680      -0.00171921      -0.00031826 </v>
   <v>       0.00193845       0.00163935       0.00357951 </v>
   <v>      -0.00180106       0.00010367      -0.00294103 </v>
   <v>      -0.00022421      -0.00374479       0.00326123 </v>
   <v>       0.00082186      -0.00213637      -0.00130060 </v>
   <v>      -0.00105156      -0.00107383      -0.00013718 </v>
   <v>       0.00169844       0.00291368      -0.00050674 </v>
   <v>      -0.00360686      -0.00368188       0.00202917 </v>
   <v>       0.00107023      -0.00084786      -0.00054101 </v>
   <v>      -0.00134565       0.00304307       0.00057759 </v>
   <v>       0.00106740       0.00086760      -0.00061910 </v>
   <v>      -0.00071233      -0.00001944       0.00080704 </v>
   <v>      -0.00016263      -0.00101660      -0.00207312 </v>
   <v>       0.00057720       0.00360051       0.00094456 </v>
   <v>       0.00060144       0.00426923      -0.00260775 </v>
   <v>      -0.00101105      -0.00091770       0.00151828 </v>
   <v>       0.00218971      -0.00024249      -0.00337688 </v>
   <v>      -0.00104591       0.00148281       0.00131749 </v>
   <v>       0.00028496       0.00239663      -0.00116711 </v>
   <v>      -0.00482480      -0.00173800       0.00192267 </v>
   <v>       0.00147095       0.00270390      -0.00028795 </v>
   <v>      -0.00102408       0.00035210      -0.00079893 </v>
   <v>      -0.00098017      -0.00169067       0.00523626 </v>
   <v>      -0.00116743       0.00367773       0.00060933 </v>
   <v>       0.00019494      -0.00093870       0.00554265 </v>
   <v>       0.00807170       0.00480543      -0.00125567 </v>
   <v>       0.00027322      -0.00069504       0.00497900 </v>
   <v>       0.00040971       0.00165086      -0.00049560 </v>
   <v>      -0.00038313       0.00073546      -0.00093491 </v>
   <v>       0.00083335      -0.00039730      -0.00041429 </v>
   <v>       0.00084864       0.00052199      -0.00144944 </v>
   <v>      -0.00053375      -0.00300430      -0.00167909 </v>
   <v>       0.00239353      -0.00097410      -0.00122264 </v>
   <v>      -0.00156713       0.00129193      -0.00305842 </v>
   <v>      -0.00203559       0.00216856       0.00148282 </v>
   <v>      -0.00054780      -0.00095492       0.00154685 </v>
   <v>       0.00116247       0.00082925       0.00099189 </v>
   <v>       0.00142792       0.00197638      -0.00199351 </v>
   <v>       0.00142389      -0.00071688      -0.00212761 </v>
   <v>       0.00059639      -0.00066925      -0.00011019 </v>
   <v>       0.00029464      -0.00032007      -0.00039797 </v>
   <v>      -0.00021110      -0.00011746       0.00002950 </v>
   <v>      -0.00007021      -0.00072021       0.00020089 </v>
   <v>      -0.00418281       0.00054675      -0.00079656 </v>
   <v>       0.00178362       0.00117154      -0.00036349 </v>
   <v>       0.00005500       0.00421609       0.00089278 </v>
   <v>       0.00159066      -0.00068370      -0.00044946 </v>
   <v>       0.00117419       0.00124366       0.00016283 </v>
   <v>       0.00035401      -0.00498667      -0.00021755 </v>
   <v>      -0.00101454      -0.00069542       0.00043645 </v>
   <v>      -0.00030410       0.00173940       0.00422439 </v>
   <v>       0.00023022      -0.00107539       0.00115162 </v>
   <v>       0.00155477      -0.00115692       0.00011560 </v>
   <v>       0.00046772       0.00096414      -0.00195607 </v>
   <v>      -0.00030564       0.00046060       0.00068748 </v>
   <v>       0.00186416       0.00028543      -0.00062200 </v>
   <v>       0.00107648      -0.00040086      -0.00146812 </v>
   <v>      -0.00031829       0.00169828      -0.00095087 </v>
   <v>      -0.00132053      -0.00002770       0.00009010 </v>
   <v>      -0.00068619      -0.00086414      -0.00092384 </v>
   <v>      -0.00011531       0.00017961       0.00014264 </v>
   <v>       0.00085119       0.00005676      -0.00182181 </v>
   <v>      -0.00056102      -0.00013267      -0.00159252 </v>
   <v>      -0.00020510       0.00052617       0.00021116 </v>
   <v>       0.00060912      -0.00064840       0.00133350 </v>
   <v>      -0.00126025      -0.00099669      -0.00157597 </v>
   <v>      -0.00126806       0.00105216      -0.00144471 </v>
   <v>       0.00032325       0.00203294      -0.00491467 </v>
   <v>      -0.00049346      -0.00105892       0.00107953 </v>
   <v>      -0.00071105      -0.00411678      -0.00031509 </v>
   <v>      -0.00034012      -0.00078316      -0.00060697 </v>
   <v>       0.00046296      -0.00104460      -0.00022579 </v>
  </varray>
  <varray name="stress" >
   <v>      -0.00315210      -0.00127706      -0.00334242 </v>
   <v>      -0.00127706      -0.00365141       0.00311642 </v>
   <v>      -0.00334242       0.00311642      -0.14535491 </v>
  </varray>
  <energy>
   <i name="e_fr_energy">   -889.48844782 </i>
   <i name="e_wo_entrp">   -889.48844782 </i>
   <i name="e_0_energy">     -0.00000000 </i>
  </energy>
  <time name="totalsc"> 5675.82 5747.93</time>
  <eigenvalues>
   <array>
    <dimension dim="1">band</dimension>
    <dimension dim="2">kpoint</dimension>
    <dimension dim="3">spin</dimension>
    <field>eigene</field>
    <field>occ</field>
    <set>
     <set comment="spin 1">
      <set comment="kpoint 1">
       <r>  -30.5161    1.0000 </r>
       <r>  -30.5138    1.0000 </r>
       <r>  -30.5125    1.0000 </r>
       <r>  -26.1341    1.0000 </r>
       <r>  -26.1300    1.0000 </r>
       <r>  -26.1291    1.0000 </r>
       <r>  -24.5456    1.0000 </r>
       <r>  -24.0883    1.0000 </r>
       <r>  -22.1415    1.0000 </r>
       <r>  -22.1404    1.0000 </r>
       <r>  -22.1258    1.0000 </r>
       <r>  -21.5917    1.0000 </r>
       <r>  -21.5911    1.0000 </r>
       <r>  -21.4207    1.0000 </r>
       <r>  -21.4178    1.0000 </r>
       <r>  -21.4157    1.0000 </r>
       <r>  -21.1208    1.0000 </r>
       <r>  -20.9898    1.0000 </r>
       <r>  -20.9873    1.0000 </r>
       <r>  -20.6437    1.0000 </r>
       <r>  -20.0729    1.0000 </r>
       <r>  -20.0723    1.0000 </r>
       <r>  -19.8224    1.0000 </r>
       <r>  -19.6384    1.0000 </r>
       <r>  -19.6374    1.0000 </r>
       <r>  -19.5005    1.0000 </r>
       <r>  -19.1885    1.0000 </r>
       <r>  -19.1875    1.0000 </r>
       <r>  -18.7444    1.0000 </r>
       <r>  -18.7437    1.0000 </r>
       <r>  -18.6458    1.0000 </r>
       <r>  -18.5720    1.0000 </r>
       <r>  -18.4851    1.0000 </r>
       <r>  -18.4846    1.0000 </r>
       <r>  -18.3704    1.0000 </r>
       <r>  -18.3647    1.0000 </r>
       <r>  -18.3621    1.0000 </r>
       <r>  -18.2417    1.0000 </r>
       <r>  -18.2394    1.0000 </r>
       <r>  -18.2341    1.0000 </r>
       <r>  -17.7195    1.0000 </r>
       <r>  -17.7181    1.0000 </r>
       <r>  -17.6225    1.0000 </r>
       <r>  -17.2400    1.0000 </r>
       <r>  -17.0214    1.0000 </r>
       <r>  -17.0206    1.0000 </r>
       <r>  -16.7009    1.0000 </r>
       <r>  -16.2281    1.0000 </r>
       <r>  -16.2276    1.0000 </r>
       <r>  -15.5806    1.0000 </r>
       <r>  -15.5723    1.0000 </r>
       <r>  -15.5713    1.0000 </r>
       <r>  -15.3515    1.0000 </r>
       <r>  -15.3501    1.0000 </r>
       <r>  -15.1598    1.0000 </r>
       <r>  -15.1246    1.0000 </r>
       <r>  -15.1227    1.0000 </r>
       <r>  -15.0999    1.0000 </r>
       <r>  -14.7889    1.0000 </r>
       <r>  -14.7884    1.0000 </r>
       <r>  -14.7819    1.0000 </r>
       <r>  -14.5394    1.0000 </r>
       <r>  -14.5381    1.0000 </r>
       <r>  -14.5302    1.0000 </r>
       <r>  -14.3199    1.0000 </r>
       <r>  -14.2178    1.0000 </r>
       <r>  -14.2170    1.0000 </r>
       <r>  -14.0172    1.0000 </r>
       <r>  -14.0155    1.0000 </r>
       <r>  -13.9859    1.0000 </r>
       <r>  -13.7364    1.0000 </r>
       <r>  -13.4878    1.0000 </r>
       <r>  -13.4875    1.0000 </r>
       <r>  -13.4100    1.0000 </r>
       <r>  -13.2367    1.0000 </r>
       <r>  -13.2351    1.0000 </r>
       <r>  -13.0377    1.0000 </r>
       <r>  -13.0366    1.0000 </r>
       <r>  -12.9049    1.0000 </r>
       <r>  -12.8600    1.0000 </r>
       <r>  -12.8583    1.0000 </r>
       <r>  -12.7665    1.0000 </r>
       <r>  -12.6169    1.0000 </r>
       <r>  -12.6156    1.0000 </r>
       <r>  -12.2775    1.0000 </r>
       <r>  -12.2621    1.0000 </r>
       <r>  -12.2604    1.0000 </r>
       <r>  -12.2480    1.0000 </r>
       <r>  -12.0660    1.0000 </r>
       <r>  -12.0648    1.0000 </r>
       <r>  -11.9987    1.0000 </r>
       <r>  -11.8213    1.0000 </r>
       <r>  -11.7427    1.0000 </r>
       <r>  -11.7419    1.0000 </r>
       <r>  -11.5798    1.0000 </r>
       <r>  -11.5787    1.0000 </r>
       <r>  -11.5156    1.0000 </r>
       <r>  -11.2028    1.0000 </r>
       <r>  -11.2002    1.0000 </r>
       <r>  -11.1065    1.0000 </r>
       <r>  -11.0101    1.0000 </r>
       <r>  -10.9788    1.0000 </r>
       <r>  -10.9781    1.0000 </r>
       <r>  -10.8322    1.0000 </r>
       <r>  -10.8319    1.0000 </r>
       <r>  -10.7330    1.0000 </r>
       <r>  -10.7293    1.0000 </r>
       <r>  -10.7050    1.0000 </r>
       <r>  -10.7042    1.0000 </r>
       <r>  -10.6716    1.0000 </r>
       <r>  -10.6703    1.0000 </r>
       <r>  -10.5779    1.0000 </r>
       <r>  -10.5390    1.0000 </r>
       <r>  -10.5379    1.0000 </r>
       <r>  -10.5190    1.0000 </r>
       <r>  -10.3762    1.0000 </r>
       <r>  -10.3753    1.0000 </r>
       <r>  -10.3699    1.0000 </r>
       <r>  -10.3176    1.0000 </r>
       <r>  -10.3171    1.0000 </r>
       <r>  -10.2867    1.0000 </r>
       <r>  -10.0753    1.0000 </r>
       <r>  -10.0533    1.0000 </r>
       <r>  -10.0498    1.0000 </r>
       <r>   -9.9900    1.0000 </r>
       <r>   -9.9875    1.0000 </r>
       <r>   -9.9862    1.0000 </r>
       <r>   -9.8574    1.0000 </r>
       <r>   -9.8508    1.0000 </r>
       <r>   -9.8501    1.0000 </r>
       <r>   -9.7345    1.0000 </r>
       <r>   -9.7333    1.0000 </r>
       <r>   -9.4372    1.0000 </r>
       <r>   -9.4004    1.0000 </r>
       <r>   -9.2527    1.0000 </r>
       <r>   -9.2460    1.0000 </r>
       <r>   -9.2444    1.0000 </r>
       <r>   -9.1696    1.0000 </r>
       <r>   -9.1675    1.0000 </r>
       <r>   -9.1471    1.0000 </r>
       <r>   -9.0797    1.0000 </r>
       <r>   -9.0787    1.0000 </r>
       <r>   -8.9724    1.0000 </r>
       <r>   -8.9687    1.0000 </r>
       <r>   -8.7843    1.0000 </r>
       <r>   -8.7316    1.0000 </r>
       <r>   -8.7300    1.0000 </r>
       <r>   -8.7152    1.0000 </r>
       <r>   -8.6134    1.0000 </r>
       <r>   -8.6119    1.0000 </r>
       <r>   -8.4034    1.0000 </r>
       <r>   -8.3166    1.0000 </r>
       <r>   -8.2481    1.0000 </r>
       <r>   -8.2470    1.0000 </r>
       <r>   -8.1545    1.0000 </r>
       <r>   -8.1525    1.0000 </r>
       <r>   -8.1206    1.0000 </r>
       <r>   -8.0467    1.0000 </r>
       <r>   -8.0373    1.0000 </r>
       <r>   -8.0348    1.0000 </r>
       <r>   -7.9033    1.0000 </r>
       <r>   -7.9016    1.0000 </r>
       <r>   -7.8633    1.0000 </r>
       <r>   -7.5093    1.0000 </r>
       <r>   -7.5067    1.0000 </r>
       <r>   -7.4660    1.0000 </r>
       <r>   -7.4232    1.0000 </r>
       <r>   -7.4212    1.0000 </r>
       <r>   -7.2580    1.0000 </r>
       <r>   -7.0798    1.0000 </r>
       <r>   -7.0602    1.0000 </r>
       <r>   -7.0573    1.0000 </r>
       <r>   -6.9522    1.0000 </r>
       <r>   -6.8766    1.0000 </r>
       <r>   -6.8755    1.0000 </r>
       <r>   -6.7064    1.0000 </r>
       <r>   -6.6823    1.0000 </r>
       <r>   -6.6214    1.0000 </r>
       <r>   -6.6158    1.0000 </r>
       <r>   -6.4388    1.0000 </r>
       <r>   -6.4371    1.0000 </r>
       <r>   -6.3409    1.0000 </r>
       <r>   -6.2171    1.0000 </r>
       <r>   -6.2167    1.0000 </r>
       <r>   -6.1990    1.0000 </r>
       <r>   -6.1951    1.0000 </r>
       <r>   -6.1945    1.0000 </r>
       <r>   -6.1606    1.0000 </r>
       <r>   -6.1336    1.0000 </r>
       <r>   -6.1308    1.0000 </r>
       <r>   -5.9989    1.0000 </r>
       <r>   -5.9982    1.0000 </r>
       <r>   -5.8339    1.0000 </r>
       <r>   -5.4329    1.0000 </r>
       <r>   -5.4318    1.0000 </r>
       <r>   -4.6477    1.0000 </r>
       <r>   -4.3396    1.0000 </r>
       <r>   -3.0620    0.0000 </r>
       <r>   -3.0609    0.0000 </r>
       <r>   -3.0473    0.0000 </r>
       <r>   -2.3621    0.0000 </r>
       <r>   -2.3607    0.0000 </r>
       <r>   -2.0035    0.0000 </r>
       <r>   -1.8171    0.0000 </r>
       <r>   -1.6271    0.0000 </r>
       <r>   -1.6220    0.0000 </r>
       <r>   -1.4883    0.0000 </r>
       <r>   -1.4876    0.0000 </r>
       <r>   -1.4661    0.0000 </r>
       <r>   -1.3584    0.0000 </r>
       <r>   -1.1559    0.0000 </r>
       <r>   -1.1552    0.0000 </r>
       <r>   -1.1117    0.0000 </r>
       <r>   -1.1116    0.0000 </r>
       <r>   -1.0880    0.0000 </r>
       <r>   -0.9905    0.0000 </r>
       <r>   -0.9742    0.0000 </r>
       <r>   -0.9738    0.0000 </r>
       <r>   -0.8567    0.0000 </r>
       <r>   -0.8496    0.0000 </r>
       <r>   -0.5093    0.0000 </r>
       <r>   -0.3085    0.0000 </r>
       <r>   -0.3067    0.0000 </r>
       <r>   -0.3051    0.0000 </r>
       <r>   -0.2179    0.0000 </r>
       <r>   -0.2122    0.0000 </r>
       <r>   -0.2115    0.0000 </r>
       <r>   -0.0300    0.0000 </r>
       <r>   -0.0292    0.0000 </r>
       <r>   -0.0190    0.0000 </r>
       <r>    0.0097    0.0000 </r>
       <r>    0.1155    0.0000 </r>
       <r>    0.1156    0.0000 </r>
       <r>    0.1467    0.0000 </r>
       <r>    0.2648    0.0000 </r>
       <r>    0.2654    0.0000 </r>
       <r>    0.3207    0.0000 </r>
       <r>    0.3291    0.0000 </r>
       <r>    0.3300    0.0000 </r>
       <r>    0.3837    0.0000 </r>
       <r>    0.3851    0.0000 </r>
       <r>    0.4587    0.0000 </r>
       <r>    0.4821    0.0000 </r>
       <r>    0.5124    0.0000 </r>
       <r>    0.5609    0.0000 </r>
       <r>    0.5612    0.0000 </r>
       <r>    0.5658    0.0000 </r>
       <r>    0.6295    0.0000 </r>
       <r>    0.6646    0.0000 </r>
       <r>    0.6656    0.0000 </r>
       <r>    0.6673    0.0000 </r>
       <r>    0.6929    0.0000 </r>
       <r>    0.6961    0.0000 </r>
       <r>    0.7127    0.0000 </r>
       <r>    0.7159    0.0000 </r>
       <r>    0.7663    0.0000 </r>
       <r>    0.7715    0.0000 </r>
       <r>    0.7820    0.0000 </r>
       <r>    0.8241    0.0000 </r>
       <r>    0.8958    0.0000 </r>
       <r>    0.8983    0.0000 </r>
       <r>    0.9002    0.0000 </r>
       <r>    0.9021    0.0000 </r>
       <r>    0.9420    0.0000 </r>
       <r>    0.9432    0.0000 </r>
       <r>    0.9586    0.0000 </r>
       <r>    0.9728    0.0000 </r>
       <r>    0.9737    0.0000 </r>
       <r>    0.9921    0.0000 </r>
       <r>    1.0153    0.0000 </r>
       <r>    1.0187    0.0000 </r>
       <r>    1.0961    0.0000 </r>
      </set>
      <set comment="kpoint 2">
       <r>  -30.5161    1.0000 </r>
       <r>  -30.5138    1.0000 </r>
       <r>  -30.5125    1.0000 </r>
       <r>  -26.1341    1.0000 </r>
       <r>  -26.1300    1.0000 </r>
       <r>  -26.1291    1.0000 </r>
       <r>  -24.5456    1.0000 </r>
       <r>  -24.0883    1.0000 </r>
       <r>  -22.1415    1.0000 </r>
       <r>  -22.1404    1.0000 </r>
       <r>  -22.1258    1.0000 </r>
       <r>  -21.5917    1.0000 </r>
       <r>  -21.5911    1.0000 </r>
       <r>  -21.4244    1.0000 </r>
       <r>  -21.4174    1.0000 </r>
       <r>  -21.4123    1.0000 </r>
       <r>  -21.1213    1.0000 </r>
       <r>  -20.9897    1.0000 </r>
       <r>  -20.9870    1.0000 </r>
       <r>  -20.6439    1.0000 </r>
       <r>  -20.0728    1.0000 </r>
       <r>  -20.0722    1.0000 </r>
       <r>  -19.8225    1.0000 </r>
       <r>  -19.6384    1.0000 </r>
       <r>  -19.6373    1.0000 </r>
       <r>  -19.5009    1.0000 </r>
       <r>  -19.1885    1.0000 </r>
       <r>  -19.1868    1.0000 </r>
       <r>  -18.7450    1.0000 </r>
       <r>  -18.7439    1.0000 </r>
       <r>  -18.6461    1.0000 </r>
       <r>  -18.5731    1.0000 </r>
[...]
       <r>   -23.7511     0.0000    16.0000 </r>
       <r>   -23.6352     0.0000    16.0000 </r>
       <r>   -23.5193     0.0000    16.0000 </r>
       <r>   -23.4033     0.0000    16.0000 </r>
       <r>   -23.2874     0.0000    16.0000 </r>
       <r>   -23.1715     0.0000    16.0000 </r>
       <r>   -23.0556     0.0000    16.0000 </r>
       <r>   -22.9397     0.0000    16.0000 </r>
       <r>   -22.8238     0.0000    16.0000 </r>
       <r>   -22.7079     0.0000    16.0000 </r>
       <r>   -22.5920     0.0000    16.0000 </r>
       <r>   -22.4761     0.0000    16.0000 </r>
       <r>   -22.3601     0.0000    16.0000 </r>
       <r>   -22.2442     0.0000    16.0000 </r>
       <r>   -22.1283    39.5756    20.5873 </r>
       <r>   -22.0124     0.0000    22.0000 </r>
       <r>   -21.8965     0.0000    22.0000 </r>
       <r>   -21.7806     0.0000    22.0000 </r>
       <r>   -21.6647     0.0000    22.0000 </r>
       <r>   -21.5488    34.5091    26.0000 </r>
       <r>   -21.4329    15.7958    27.8309 </r>
       <r>   -21.3169    14.2014    31.9128 </r>
       <r>   -21.2010     1.2077    32.1400 </r>
       <r>   -21.0851     6.3267    34.0000 </r>
       <r>   -20.9692    21.2627    36.4646 </r>
       <r>   -20.8533     7.4770    38.0000 </r>
       <r>   -20.7374     0.0000    38.0000 </r>
       <r>   -20.6215    17.2530    39.9998 </r>
       <r>   -20.5056     0.0000    40.0000 </r>
       <r>   -20.3896     0.0000    40.0000 </r>
       <r>   -20.2737     0.0000    40.0000 </r>
       <r>   -20.1578     0.0000    40.0000 </r>
       <r>   -20.0419    29.5596    43.4263 </r>
       <r>   -19.9260     0.0000    44.0000 </r>
       <r>   -19.8101    17.1377    45.9865 </r>
       <r>   -19.6942     0.0000    46.0000 </r>
       <r>   -19.5783    34.5100    50.0001 </r>
       <r>   -19.4624     8.0521    52.0000 </r>
       <r>   -19.3464     0.0000    52.0000 </r>
       <r>   -19.2305     0.0000    52.0000 </r>
       <r>   -19.1146    23.3886    54.7110 </r>
       <r>   -18.9987     8.4348    55.9110 </r>
       <r>   -18.8828     8.9564    57.0381 </r>
       <r>   -18.7669     3.8058    57.6411 </r>
       <r>   -18.6510    14.3311    61.6611 </r>
       <r>   -18.5351    17.2546    64.0000 </r>
       <r>   -18.4192    22.0376    66.5544 </r>
       <r>   -18.3032    41.5266    72.8134 </r>
       <r>   -18.1873    46.0447    79.3371 </r>
       <r>   -18.0714     0.0000    80.0000 </r>
       <r>   -17.9555     8.5805    80.9946 </r>
       <r>   -17.8396     2.6873    81.4448 </r>
       <r>   -17.7237     7.3197    82.4151 </r>
       <r>   -17.6078     1.4007    84.1624 </r>
       <r>   -17.4919     2.7219    84.6488 </r>
       <r>   -17.3760    10.3464    85.9993 </r>
       <r>   -17.2600    10.5682    87.2250 </r>
       <r>   -17.1441     0.0000    88.0000 </r>
       <r>   -17.0282     3.1609    88.3664 </r>
       <r>   -16.9123     9.7776    92.0000 </r>
       <r>   -16.7964     9.5847    93.1110 </r>
       <r>   -16.6805     5.4618    93.9998 </r>
       <r>   -16.5646     0.0000    94.0000 </r>
       <r>   -16.4487     0.0000    94.0000 </r>
       <r>   -16.3328     0.0000    94.0000 </r>
       <r>   -16.2168    18.3737    96.1297 </r>
       <r>   -16.1009     4.6541    97.0395 </r>
       <r>   -15.9850     0.0000    98.0000 </r>
       <r>   -15.8691     0.0000    98.0000 </r>
       <r>   -15.7532     9.1563    99.0613 </r>
       <r>   -15.6373     3.3076    99.6501 </r>
       <r>   -15.5214    22.0468   102.3888 </r>
       <r>   -15.4055    18.3118   104.8225 </r>
       <r>   -15.2896     9.4900   108.0000 </r>
       <r>   -15.1736     0.0402   108.0047 </r>
       <r>   -15.0577    33.0786   113.8342 </r>
       <r>   -14.9418     9.7776   116.0000 </r>
       <r>   -14.8259    22.7950   118.6422 </r>
       <r>   -14.7100    19.5552   122.0000 </r>
       <r>   -14.5941    12.9261   123.4983 </r>
       <r>   -14.4782    23.9457   126.5756 </r>
       <r>   -14.3623     0.0001   128.0000 </r>
       <r>   -14.2463     5.5925   130.0149 </r>
       <r>   -14.1304    14.0912   134.0000 </r>
       <r>   -14.0145    24.8917   136.8852 </r>
       <r>   -13.8986    14.3788   140.0000 </r>
       <r>   -13.7827     0.0000   140.0000 </r>
       <r>   -13.6668    17.2546   142.0000 </r>
       <r>   -13.5509     0.0000   142.0000 </r>
       <r>   -13.4350    34.5133   146.0005 </r>
       <r>   -13.3191     0.0000   148.0000 </r>
       <r>   -13.2031    34.5089   152.0000 </r>
       <r>   -13.0872     0.0000   152.0000 </r>
       <r>   -12.9713    34.5091   156.0000 </r>
       <r>   -12.8554    40.0581   160.6432 </r>
       <r>   -12.7395    13.3085   163.5426 </r>
       <r>   -12.6236    16.0713   165.8628 </r>
       <r>   -12.5077     0.0000   168.0000 </r>
       <r>   -12.3918     0.0000   168.0000 </r>
       <r>   -12.2759     9.2551   169.0728 </r>
       <r>   -12.1599    21.2560   177.0305 </r>
       <r>   -12.0440    22.6589   179.9931 </r>
       <r>   -11.9281     5.6398   180.6537 </r>
       <r>   -11.8122    23.4693   183.6537 </r>
       <r>   -11.6963    24.4440   188.0000 </r>
       <r>   -11.5804    18.4186   190.1349 </r>
       <r>   -11.4645     6.9343   192.8038 </r>
       <r>   -11.3486     0.0000   194.0000 </r>
       <r>   -11.2327    12.2437   195.4192 </r>
       <r>   -11.1167    12.7703   198.0136 </r>
       <r>   -11.0008    32.6889   202.4223 </r>
       <r>   -10.8849    16.6859   206.9341 </r>
       <r>   -10.7690    20.9931   210.0000 </r>
       <r>   -10.6531    93.2301   220.8064 </r>
       <r>   -10.5372    35.1649   226.0760 </r>
       <r>   -10.4213    12.9822   231.5048 </r>
       <r>   -10.3054    65.7657   239.9563 </r>
       <r>   -10.1895     3.6467   240.6560 </r>
       <r>   -10.0735    16.9128   242.8271 </r>
       <r>    -9.9576    60.2414   254.9827 </r>
       <r>    -9.8417    32.7342   259.0609 </r>
       <r>    -9.7258    32.1702   263.7289 </r>
       <r>    -9.6099     0.0000   264.0000 </r>
       <r>    -9.4940     0.0000   264.0000 </r>
       <r>    -9.3781    22.5839   266.6177 </r>
       <r>    -9.2622    24.3196   269.7856 </r>
       <r>    -9.1462    43.3334   278.3562 </r>
       <r>    -9.0303    29.3328   284.0000 </r>
       <r>    -8.9144    34.5091   288.0000 </r>
       <r>    -8.7985     0.0629   288.0073 </r>
       <r>    -8.6826    51.0068   295.9123 </r>
       <r>    -8.5667    29.9079   300.0000 </r>
       <r>    -8.4508     0.0000   300.0000 </r>
       <r>    -8.3349    28.1081   303.2580 </r>
       <r>    -8.2190    24.9316   306.8899 </r>
       <r>    -8.1030    46.4037   313.9787 </r>
       <r>    -7.9871    47.4056   319.4948 </r>
       <r>    -7.8712    29.3067   324.0303 </r>
       <r>    -7.7553     5.1764   326.0000 </r>
       <r>    -7.6394     0.0000   326.0000 </r>
       <r>    -7.5235    10.2755   327.1910 </r>
       <r>    -7.4076    51.0893   335.9218 </r>
       <r>    -7.2917     0.0000   336.0000 </r>
       <r>    -7.1758    15.5285   337.9999 </r>
       <r>    -7.0598    29.6605   341.4380 </r>
       <r>    -6.9439    14.4612   345.9762 </r>
       <r>    -6.8280    34.5091   350.0000 </r>
       <r>    -6.7121    15.4520   351.7911 </r>
       <r>    -6.5962    19.7891   356.2938 </r>
       <r>    -6.4803     5.3236   357.1171 </r>
       <r>    -6.3644    34.5169   362.0009 </r>
       <r>    -6.2485    10.4362   365.2097 </r>
       <r>    -6.1326    92.3004   378.6987 </r>
       <r>    -6.0166    14.9307   381.7306 </r>
       <r>    -5.9007     0.0000   384.0000 </r>
       <r>    -5.7848     3.6824   384.4268 </r>
       <r>    -5.6689     3.3141   384.9841 </r>
       <r>    -5.5530     7.5055   386.4033 </r>
       <r>    -5.4371    11.1460   388.3253 </r>
       <r>    -5.3212     0.0000   390.0000 </r>
       <r>    -5.2053     0.0000   390.0000 </r>
       <r>    -5.0894     0.0000   390.0000 </r>
       <r>    -4.9734     0.0000   390.0000 </r>
       <r>    -4.8575     0.0000   390.0000 </r>
       <r>    -4.7416     0.0000   390.0000 </r>
       <r>    -4.6257    10.0748   391.1678 </r>
       <r>    -4.5098     0.0000   392.0000 </r>
       <r>    -4.3939     0.0000   392.0000 </r>
       <r>    -4.2780    17.2546   394.0000 </r>
       <r>    -4.1621     0.0000   394.0000 </r>
       <r>    -4.0462     0.0000   394.0000 </r>
       <r>    -3.9302     0.0000   394.0000 </r>
       <r>    -3.8143     0.0000   394.0000 </r>
       <r>    -3.6984     0.0000   394.0000 </r>
       <r>    -3.5825     0.0000   394.0000 </r>
       <r>    -3.4666     0.0000   394.0000 </r>
       <r>    -3.3507     0.0000   394.0000 </r>
       <r>    -3.2348     0.0000   394.0000 </r>
       <r>    -3.1189     0.0000   394.0000 </r>
       <r>    -3.0029    51.7637   400.0000 </r>
       <r>    -2.8870     0.0000   400.0000 </r>
       <r>    -2.7711     0.0000   400.0000 </r>
       <r>    -2.6552     0.0000   400.0000 </r>
       <r>    -2.5393     0.0000   400.0000 </r>
       <r>    -2.4234     0.0000   400.0000 </r>
       <r>    -2.3075    34.5091   404.0000 </r>
       <r>    -2.1916     0.0000   404.0000 </r>
       <r>    -2.0757     0.5042   404.0584 </r>
       <r>    -1.9597     6.0391   406.0000 </r>
       <r>    -1.8438     0.0042   406.0005 </r>
       <r>    -1.7279     0.0000   408.0000 </r>
       <r>    -1.6120    18.8530   410.1853 </r>
       <r>    -1.4961    15.9586   412.4164 </r>
       <r>    -1.3802    10.3772   418.0028 </r>
       <r>    -1.2643     8.9531   421.0378 </r>
       <r>    -1.1484    18.2982   423.3210 </r>
       <r>    -1.0325    36.6729   431.7841 </r>
       <r>    -0.9165    20.0287   434.2549 </r>
       <r>    -0.8006    36.9878   438.6540 </r>
       <r>    -0.6847     7.4124   439.6592 </r>
       <r>    -0.5688     0.0000   440.0000 </r>
       <r>    -0.4529    24.8598   442.8815 </r>
       <r>    -0.3370    12.3894   444.5694 </r>
       <r>    -0.2211    11.3300   449.3133 </r>
       <r>    -0.1052    14.4435   453.8742 </r>
       <r>     0.0107    41.2549   460.1152 </r>
       <r>     0.1267    40.0792   465.2456 </r>
       <r>     0.2426    25.0089   469.2655 </r>
       <r>     0.3585    45.0711   477.9909 </r>
       <r>     0.4744    35.3986   482.9031 </r>
       <r>     0.5903    74.0687   495.1521 </r>
       <r>     0.7062    68.4692   505.3364 </r>
       <r>     0.8221    58.0919   514.8335 </r>
       <r>     0.9380    77.8573   528.2912 </r>
       <r>     1.0539    79.2773   542.0891 </r>
       <r>     1.1699     1.4379   544.0000 </r>
       <r>     1.2858     0.0000   544.0000 </r>
       <r>     1.4017     0.0000   544.0000 </r>
       <r>     1.5176     0.0000   544.0000 </r>
       <r>     1.6335     0.0000   544.0000 </r>
       <r>     1.7494     0.0000   544.0000 </r>
       <r>     1.8653     0.0000   544.0000 </r>
       <r>     1.9812     0.0000   544.0000 </r>
       <r>     2.0971     0.0000   544.0000 </r>
       <r>     2.2131     0.0000   544.0000 </r>
       <r>     2.3290     0.0000   544.0000 </r>
       <r>     2.4449     0.0000   544.0000 </r>
       <r>     2.5608     0.0000   544.0000 </r>
       <r>     2.6767     0.0000   544.0000 </r>
      </set>
     </set>
    </array>
   </total>
  </dos>
 </calculation>
 <structure name="finalpos" >
  <crystal>
   <varray name="basis" >
    <v>      32.28927424      -0.01588653       0.00000000 </v>
    <v>     -16.15839415      27.98114811       0.00000000 </v>
    <v>       0.00000000       0.00000000      20.00000000 </v>
   </varray>
   <i name="volume">  18064.68528403 </i>
   <varray name="rec_basis" >
    <v>       0.03097884       0.01788948       0.00000000 </v>
    <v>       0.00001759       0.03574850       0.00000000 </v>
    <v>       0.00000000       0.00000000       0.05000000 </v>
   </varray>
  </crystal>
  <varray name="positions" >
   <v>       0.35825039       0.67496632       0.52008972 </v>
   <v>       0.49919235       0.04004966       0.63976376 </v>
   <v>       0.58188650       0.53344513       0.63985398 </v>
   <v>       0.69124323       0.34152896       0.52459241 </v>
   <v>       0.99286268       0.45100619       0.63930918 </v>
   <v>       0.45688681       0.01107840       0.62661030 </v>
   <v>       0.57927004       0.51717392       0.69694491 </v>
   <v>       0.51579726       0.05352909       0.69676220 </v>
   <v>       0.59505692       0.57563468       0.62640324 </v>
   <v>       0.97937819       0.45396515       0.69637951 </v>
   <v>       0.02183453       0.43773573       0.62600784 </v>
   <v>       0.30762034       0.64995803       0.52175047 </v>
   <v>       0.28173208       0.66380199       0.47987212 </v>
   <v>       0.23194857       0.63899145       0.48128764 </v>
   <v>       0.20654007       0.60031683       0.52509449 </v>
   <v>       0.23277592       0.58703036       0.56723047 </v>
   <v>       0.28253755       0.61110703       0.56534730 </v>
   <v>       0.05217676       0.52097468       0.53034905 </v>
   <v>       0.15363821       0.57388562       0.52667420 </v>
   <v>       0.12866671       0.56733101       0.58692257 </v>
   <v>       0.07893062       0.54189427       0.58863055 </v>
   <v>       0.07717955       0.52777808       0.47001870 </v>
   <v>       0.12693052       0.55411820       0.46809627 </v>
   <v>       0.38380024       0.72555011       0.52196061 </v>
   <v>       0.38324817       0.64940344       0.52169539 </v>
   <v>       0.42329274       0.75160368       0.47971008 </v>
   <v>       0.44809686       0.80134650       0.48126051 </v>
   <v>       0.43489759       0.82653866       0.52555196 </v>
   <v>       0.39563407       0.80012920       0.56808502 </v>
   <v>       0.37011638       0.75040271       0.56608433 </v>
   <v>       0.42221080       0.66329065       0.56515380 </v>
   <v>       0.44622404       0.63758720       0.56710093 </v>
   <v>       0.43277198       0.59794519       0.52516045 </v>
   <v>       0.39402702       0.58459738       0.48142508 </v>
   <v>       0.36927566       0.60958351       0.47994889 </v>
   <v>       0.50956170       0.98079217       0.53065086 </v>
   <v>       0.46117983       0.87940283       0.52712644 </v>
   <v>       0.47979082       0.90442555       0.58728354 </v>
   <v>       0.51189987       0.52282990       0.53073011 </v>
   <v>       0.45911705       0.57143125       0.52685671 </v>
   <v>       0.46544143       0.55287009       0.58710734 </v>
   <v>       0.49081389       0.52854496       0.58890321 </v>
   <v>       0.49112225       0.95574014       0.47042490 </v>
   <v>       0.46779573       0.90603065       0.46857129 </v>
   <v>       0.47903245       0.56459034       0.46837395 </v>
   <v>       0.50400414       0.95412836       0.58890950 </v>
   <v>       0.50529851       0.54114602       0.47038606 </v>
   <v>       0.53499084       0.03357504       0.53100696 </v>
   <v>       0.53256267       0.06174910       0.58290534 </v>
   <v>       0.53922699       0.49738303       0.53130095 </v>
   <v>       0.56576789       0.05951531       0.47791784 </v>
   <v>       0.53432245       0.46654564       0.47830657 </v>
   <v>       0.66583397       0.29092560       0.52549522 </v>
   <v>       0.66596363       0.36683778       0.52566854 </v>
   <v>       0.74186289       0.36677790       0.52546166 </v>
   <v>       0.76717040       0.34976956       0.56276244 </v>
   <v>       0.81686396       0.37458681       0.56318859 </v>
   <v>       0.84348463       0.41767701       0.52769982 </v>
   <v>       0.81766166       0.43447627       0.49095696 </v>
   <v>       0.76795811       0.40950680       0.48921316 </v>
   <v>       0.62361457       0.26563640       0.56308011 </v>
   <v>       0.59872114       0.21597294       0.56357580 </v>
   <v>       0.61506912       0.18935111       0.52785868 </v>
   <v>       0.65759408       0.21516110       0.49081959 </v>
   <v>       0.68233771       0.26483114       0.48902162 </v>
   <v>       0.62333702       0.35030956       0.48916826 </v>
   <v>       0.59831027       0.37494047       0.49107035 </v>
   <v>       0.61496490       0.41737031       0.52823518 </v>
   <v>       0.65794089       0.43371753       0.56402799 </v>
   <v>       0.68280135       0.40892299       0.56344214 </v>
   <v>       0.58851740       0.13659206       0.52906717 </v>
   <v>       0.55914328       0.11142541       0.58337019 </v>
   <v>       0.58870609       0.44385898       0.52945347 </v>
   <v>       0.56989077       0.49986760       0.58319829 </v>
   <v>       0.59294588       0.47325571       0.58371018 </v>
   <v>       0.89627172       0.44394292       0.52888933 </v>
   <v>       0.99935456       0.49358429       0.53079502 </v>
   <v>       0.97117712       0.46280161       0.58258434 </v>
   <v>       0.92146609       0.43961180       0.58304278 </v>
   <v>       0.59103376       0.10917977       0.47612349 </v>
   <v>       0.55875015       0.44131909       0.47650772 </v>
   <v>       0.92368031       0.47409326       0.47610516 </v>
   <v>       0.97338231       0.49855813       0.47787671 </v>
   <v>       0.30105577       0.69409799       0.44620605 </v>
   <v>       0.21223670       0.65001826       0.44840851 </v>
   <v>       0.30244198       0.60009423       0.59778213 </v>
   <v>       0.21367975       0.55693385       0.60135768 </v>
   <v>       0.14870005       0.58334934       0.63274481 </v>
   <v>       0.06076061       0.53893555       0.63588417 </v>
   <v>       0.05739886       0.51101686       0.42431967 </v>
   <v>       0.14561222       0.55815750       0.42095302 </v>
   <v>       0.47864033       0.82120409       0.44806594 </v>
   <v>       0.43416827       0.73243328       0.44561399 </v>
   <v>       0.33937407       0.73033557       0.59880340 </v>
   <v>       0.38466916       0.81904370       0.60258499 </v>
   <v>       0.43333379       0.69428968       0.59745537 </v>
   <v>       0.47638900       0.64865910       0.60114257 </v>
   <v>       0.38290092       0.55379027       0.44865292 </v>
   <v>       0.33891150       0.59855149       0.44636190 </v>
   <v>       0.47605652       0.88447822       0.63307552 </v>
   <v>       0.44929993       0.55679399       0.63285102 </v>
   <v>       0.49359591       0.51320884       0.63613277 </v>
   <v>       0.49390024       0.97544988       0.42475580 </v>
   <v>       0.45299831       0.88730398       0.42150369 </v>
   <v>       0.47516150       0.57934504       0.42124035 </v>
   <v>       0.51938236       0.97234213       0.63607409 </v>
   <v>       0.57008331       0.03959474       0.43710059 </v>
   <v>       0.52215754       0.53819921       0.42474144 </v>
   <v>       0.51003600       0.46220317       0.43752540 </v>
   <v>       0.56555476       0.19756780       0.59214532 </v>
   <v>       0.61017499       0.28519573       0.59161084 </v>
   <v>       0.71506855       0.28381977       0.45969996 </v>
   <v>       0.67201937       0.19610852       0.46314098 </v>
   <v>       0.74759325       0.31667661       0.59112077 </v>
   <v>       0.83529569       0.35976229       0.59148951 </v>
   <v>       0.60967277       0.31766183       0.45973380 </v>
   <v>       0.56482075       0.36051121       0.46334400 </v>
   <v>       0.67263928       0.46680492       0.59270928 </v>
   <v>       0.71579105       0.42232641       0.59206159 </v>
   <v>       0.74893917       0.42329157       0.46010687 </v>
   <v>       0.83672064       0.46804217       0.46344581 </v>
   <v>       0.55629516       0.13008445       0.62693295 </v>
   <v>       0.61451558       0.47616639       0.62724429 </v>
   <v>       0.90280152       0.41793530       0.62650268 </v>
   <v>       0.61300027       0.12699718       0.43243448 </v>
   <v>       0.55461738       0.41939248       0.43281009 </v>
   <v>       0.90584228       0.47837504       0.43256269 </v>
   <v>       0.99331439       0.52296611       0.43721019 </v>
  </varray>
 </structure>
</modeling>
