<?xml version="1.0" encoding="ISO-8859-1"?>
<modeling>
 <generator>
  <i name="program" type="string">vasp </i>
  <i name="version" type="string">5.4.4.18Apr17-6-g9f103f2a35  </i>
  <i name="subversion" type="string">(build Jun 07 2020 16:50:00) complex            parallel </i>
  <i name="platform" type="string">LinuxIFC </i>
  <i name="date" type="string">2023 02 23 </i>
  <i name="time" type="string">22:46:33 </i>
 </generator>
 <incar>
  <i type="string" name="SYSTEM">Simulation for cell shape cell volume r</i>
  <i type="int" name="ISTART">     1</i>
  <i type="string" name="PREC">high</i>
  <i type="string" name="ALGO">48</i>
  <i type="int" name="ICHARG">    11</i>
  <i type="int" name="NELM">   200</i>
  <i type="int" name="IBRION">    -1</i>
  <i name="EDIFF">      0.00001000</i>
  <i name="EDIFFG">     -0.01000000</i>
  <i type="int" name="NSW">     0</i>
  <i type="int" name="ISIF">     2</i>
  <i name="ENCUT">    500.00000000</i>
  <i name="POTIM">      0.30000000</i>
  <i type="string" name="LREAL">A</i>
  <i type="int" name="ISMEAR">     0</i>
  <i name="SIGMA">      0.01000000</i>
  <i type="int" name="NWRITE">     0</i>
  <i type="logical" name="LWAVE"> F  </i>
  <i type="logical" name="LCHARG"> F  </i>
  <v type="int" name="KPOINT_BSE">    -1     0     0     0</v>
  <i type="int" name="NELM">   200</i>
  <i type="string" name="GGA">PE</i>
 </incar>
 <structure name="primitive_cell" >
  <crystal>
   <varray name="basis" >
    <v>      25.63045014       0.01337854       0.00000000 </v>
    <v>      -0.00324492      25.62266418       0.00000000 </v>
    <v>       0.00000000       0.00000000      20.00000000 </v>
   </varray>
   <i name="volume">  13134.40920551 </i>
   <varray name="rec_basis" >
    <v>       0.03901609       0.00000494       0.00000000 </v>
    <v>      -0.00002037       0.03902795       0.00000000 </v>
    <v>       0.00000000       0.00000000       0.05000000 </v>
   </varray>
  </crystal>
  <varray name="positions" >
   <v>      -0.00300193       0.38108089       0.47870421 </v>
   <v>      -0.02716064       0.35064817      -0.48067456 </v>
   <v>      -0.00545150       0.43539548       0.48338145 </v>
   <v>      -0.05297507       0.36559370      -0.44079211 </v>
   <v>      -0.01050700       0.46239554       0.42225121 </v>
   <v>      -0.02356472       0.29376963      -0.48548170 </v>
   <v>      -0.00069162       0.46446023      -0.45623354 </v>
   <v>      -0.01274489       0.43922035       0.37659653 </v>
   <v>       0.01636267       0.29321658       0.41976836 </v>
   <v>       0.03117076       0.40326002      -0.39297114 </v>
   <v>       0.00037741       0.26902865       0.45966557 </v>
   <v>       0.00823810       0.43935941      -0.38886616 </v>
   <v>      -0.02856401       0.42927595      -0.36362113 </v>
   <v>      -0.04481749       0.26270246      -0.43439450 </v>
   <v>      -0.01366298      -0.48367927       0.41988888 </v>
   <v>      -0.00237615      -0.48113518      -0.46021185 </v>
   <v>      -0.06353108       0.28143102      -0.39156703 </v>
   <v>       0.02933908       0.46628186      -0.35580046 </v>
   <v>      -0.00877889      -0.45422070       0.47894059 </v>
   <v>       0.00270755       0.21493334       0.45627746 </v>
   <v>      -0.01868653      -0.46310677       0.37259618 </v>
   <v>       0.00066323      -0.45890945      -0.41374383 </v>
   <v>      -0.04165627       0.20848613      -0.43737269 </v>
   <v>       0.02038228       0.19603866       0.41294853 </v>
   <v>      -0.01806700       0.18365625      -0.49224311 </v>
   <v>      -0.01113612      -0.39987918       0.47296516 </v>
   <v>      -0.05751605       0.18475741      -0.39692547 </v>
   <v>       0.08765145       0.17359090      -0.49051839 </v>
   <v>       0.03416445      -0.38513062      -0.44166669 </v>
   <v>      -0.12106785       0.16372509      -0.49858488 </v>
   <v>       0.01085201      -0.36976484      -0.48391679 </v>
   <v>      -0.01506709       0.12563856      -0.49549129 </v>
   <v>       0.08394819       0.13147753      -0.49250275 </v>
   <v>       0.03533319       0.10379841      -0.49528721 </v>
   <v>      -0.11352395       0.12206196      -0.49780342 </v>
   <v>      -0.06231224       0.09718909      -0.49708170 </v>
   <v>       0.00743128      -0.31295534      -0.48807819 </v>
   <v>      -0.02891911      -0.31168889       0.41485847 </v>
   <v>       0.12360492       0.09544369      -0.49271925 </v>
   <v>       0.16518723       0.10314450      -0.49183735 </v>
   <v>      -0.01447118      -0.28778075       0.45597122 </v>
   <v>      -0.14917734       0.08283256      -0.49738576 </v>
   <v>       0.04746223       0.05145311      -0.49622631 </v>
   <v>       0.04377411      -0.30130473      -0.39159867 </v>
   <v>      -0.06691866       0.04387110      -0.49806358 </v>
   <v>       0.02672038      -0.28225512      -0.43533142 </v>
   <v>      -0.19135592       0.08638935      -0.49665439 </v>
   <v>       0.10069654       0.04436550      -0.49415209 </v>
   <v>       0.02069754       0.02198360      -0.49729930 </v>
   <v>      -0.11955486       0.03421807      -0.49815606 </v>
   <v>      -0.01678032      -0.23367771       0.45317923 </v>
   <v>       0.02371607      -0.22802644      -0.43786678 </v>
   <v>       0.12729164      -0.00368171      -0.49376918 </v>
   <v>       0.18768435       0.03480654      -0.39347423 </v>
   <v>      -0.03297394      -0.21441951       0.40915917 </v>
   <v>       0.00209961      -0.20282425      -0.49376594 </v>
   <v>      -0.14326234      -0.01558091      -0.49748981 </v>
   <v>      -0.21350731       0.01834160       0.40952880 </v>
   <v>      -0.03663021      -0.04110592      -0.49828200 </v>
   <v>       0.21084210       0.02052161      -0.43542814 </v>
   <v>       0.18532098      -0.00107684      -0.49107686 </v>
   <v>       0.03808927      -0.20459476      -0.39622934 </v>
   <v>      -0.10343683      -0.19286568      -0.49666927 </v>
   <v>      -0.23247368       0.00115374       0.45311730 </v>
   <v>      -0.20127969      -0.01846776      -0.49458608 </v>
   <v>       0.05102008      -0.06310299      -0.49648534 </v>
   <v>       0.10361783      -0.05347196      -0.49520156 </v>
   <v>       0.10511190      -0.18299656      -0.49593035 </v>
   <v>       0.26508313       0.02347808      -0.43339227 </v>
   <v>      -0.06336837      -0.07061973      -0.49865028 </v>
   <v>       0.21586354      -0.02006906       0.45562366 </v>
   <v>       0.28440562       0.04046002      -0.38983051 </v>
   <v>      -0.11661798      -0.06361793      -0.49805871 </v>
   <v>       0.19631862      -0.03645221       0.41194143 </v>
   <v>      -0.00083599      -0.14480265      -0.49647196 </v>
   <v>      -0.28655730      -0.00158830       0.45619975 </v>
   <v>      -0.09979454      -0.15072173      -0.49753150 </v>
   <v>       0.29546063       0.00420618      -0.48645643 </v>
   <v>      -0.31070046       0.01359993       0.41573864 </v>
   <v>      -0.22615992      -0.04136045      -0.43927681 </v>
   <v>       0.26996079      -0.01781505       0.45791486 </v>
   <v>       0.09761408      -0.14131777      -0.49531773 </v>
   <v>      -0.20249247      -0.05623043      -0.39813335 </v>
   <v>      -0.05119589      -0.12296552      -0.49803412 </v>
   <v>       0.04641981      -0.11640453      -0.49602392 </v>
   <v>       0.13325399      -0.10209147      -0.49386325 </v>
   <v>      -0.31134494      -0.02489700      -0.48854444 </v>
   <v>       0.29361304      -0.03243200       0.41663963 </v>
   <v>      -0.28033505      -0.04497127      -0.43660195 </v>
   <v>       0.36787775       0.03113877      -0.44089856 </v>
   <v>      -0.13948196      -0.11472816      -0.49839368 </v>
   <v>       0.35227178       0.00784387      -0.48302587 </v>
   <v>       0.17541876      -0.10562681      -0.49203407 </v>
   <v>      -0.18104634      -0.12250223      -0.49922057 </v>
   <v>      -0.29907862      -0.06304362      -0.39334111 </v>
   <v>      -0.36818183      -0.02883315      -0.48383810 </v>
   <v>       0.38210511      -0.01388615       0.47330430 </v>
   <v>      -0.39886768      -0.00517573       0.47532151 </v>
   <v>      -0.41984439       0.02938227      -0.39594996 </v>
   <v>      -0.38293731      -0.05437263      -0.44354476 </v>
   <v>       0.43647876      -0.01128480       0.47837277 </v>
   <v>       0.44224374      -0.00154399      -0.41443968 </v>
   <v>      -0.45311969      -0.00763999       0.48093316 </v>
   <v>      -0.45595029       0.00656677      -0.39121795 </v>
   <v>       0.44431337      -0.02138817       0.37192176 </v>
   <v>       0.46399835      -0.00461779      -0.46127137 </v>
   <v>      -0.45799674      -0.01516773       0.37429062 </v>
   <v>      -0.48257966       0.02796627      -0.35803345 </v>
   <v>      -0.48157592      -0.00273577      -0.45818601 </v>
   <v>       0.46534961      -0.01618734       0.41884138 </v>
   <v>      -0.44574189      -0.03009759      -0.36567213 </v>
   <v>      -0.48073225      -0.01289379       0.42029292 </v>
  </varray>
 </structure>
 <varray name="primitive_index" >
  <v type="int" >        1 </v>
  <v type="int" >       61 </v>
  <v type="int" >       17 </v>
  <v type="int" >      103 </v>
  <v type="int" >       18 </v>
  <v type="int" >       57 </v>
  <v type="int" >       65 </v>
  <v type="int" >       79 </v>
  <v type="int" >       71 </v>
  <v type="int" >      108 </v>
  <v type="int" >       16 </v>
  <v type="int" >       66 </v>
  <v type="int" >      107 </v>
  <v type="int" >       58 </v>
  <v type="int" >       19 </v>
  <v type="int" >       64 </v>
  <v type="int" >       83 </v>
  <v type="int" >      106 </v>
  <v type="int" >       63 </v>
  <v type="int" >       15 </v>
  <v type="int" >       80 </v>
  <v type="int" >      105 </v>
  <v type="int" >       56 </v>
  <v type="int" >       72 </v>
  <v type="int" >       55 </v>
  <v type="int" >        7 </v>
  <v type="int" >       84 </v>
  <v type="int" >       85 </v>
  <v type="int" >      101 </v>
  <v type="int" >       89 </v>
  <v type="int" >       59 </v>
  <v type="int" >       27 </v>
  <v type="int" >       23 </v>
  <v type="int" >       26 </v>
  <v type="int" >       31 </v>
  <v type="int" >       28 </v>
  <v type="int" >       48 </v>
  <v type="int" >       76 </v>
  <v type="int" >       24 </v>
  <v type="int" >       86 </v>
  <v type="int" >       12 </v>
  <v type="int" >       30 </v>
  <v type="int" >        3 </v>
  <v type="int" >       98 </v>
  <v type="int" >        4 </v>
  <v type="int" >       49 </v>
  <v type="int" >       90 </v>
  <v type="int" >       25 </v>
  <v type="int" >       87 </v>
  <v type="int" >       29 </v>
  <v type="int" >       11 </v>
  <v type="int" >       50 </v>
  <v type="int" >       42 </v>
  <v type="int" >       99 </v>
  <v type="int" >       75 </v>
  <v type="int" >       47 </v>
  <v type="int" >       32 </v>
  <v type="int" >       73 </v>
  <v type="int" >       88 </v>
  <v type="int" >       46 </v>
  <v type="int" >       43 </v>
  <v type="int" >       97 </v>
  <v type="int" >       94 </v>
  <v type="int" >       14 </v>
  <v type="int" >       51 </v>
  <v type="int" >        6 </v>
  <v type="int" >       39 </v>
  <v type="int" >       96 </v>
  <v type="int" >       45 </v>
  <v type="int" >        5 </v>
  <v type="int" >        9 </v>
  <v type="int" >      100 </v>
  <v type="int" >       33 </v>
  <v type="int" >       78 </v>
  <v type="int" >       37 </v>
  <v type="int" >       13 </v>
  <v type="int" >       35 </v>
  <v type="int" >       44 </v>
  <v type="int" >       74 </v>
  <v type="int" >       52 </v>
  <v type="int" >       10 </v>
  <v type="int" >       41 </v>
  <v type="int" >       91 </v>
  <v type="int" >       34 </v>
  <v type="int" >       38 </v>
  <v type="int" >       40 </v>
  <v type="int" >       54 </v>
  <v type="int" >       77 </v>
  <v type="int" >       53 </v>
  <v type="int" >      104 </v>
  <v type="int" >       36 </v>
  <v type="int" >       62 </v>
  <v type="int" >       95 </v>
  <v type="int" >       93 </v>
  <v type="int" >       92 </v>
  <v type="int" >       60 </v>
  <v type="int" >        8 </v>
  <v type="int" >        2 </v>
  <v type="int" >      112 </v>
  <v type="int" >      102 </v>
  <v type="int" >       67 </v>
  <v type="int" >      109 </v>
  <v type="int" >       20 </v>
  <v type="int" >       70 </v>
  <v type="int" >       82 </v>
  <v type="int" >       68 </v>
  <v type="int" >       81 </v>
  <v type="int" >      110 </v>
  <v type="int" >       69 </v>
  <v type="int" >       22 </v>
  <v type="int" >      111 </v>
  <v type="int" >       21 </v>
 </varray>
 <kpoints>
  <generation param="listgenerated">
   <i name="divisions" type="int">      20 </i>
   <v>       0.00000000       0.00000000       0.00000000 </v>
   <v>       0.50000000       0.00000000       0.00000000 </v>
   <v>       0.50000000       0.50000000       0.00000000 </v>
   <v>       0.00000000       0.00000000       0.00000000 </v>
  </generation>
  <varray name="kpointlist" >
   <v>       0.00000000       0.00000000       0.00000000 </v>
   <v>       0.02631579       0.00000000       0.00000000 </v>
   <v>       0.05263158       0.00000000       0.00000000 </v>
   <v>       0.07894737       0.00000000       0.00000000 </v>
   <v>       0.10526316       0.00000000       0.00000000 </v>
   <v>       0.13157895       0.00000000       0.00000000 </v>
   <v>       0.15789474       0.00000000       0.00000000 </v>
   <v>       0.18421053       0.00000000       0.00000000 </v>
   <v>       0.21052632       0.00000000       0.00000000 </v>
   <v>       0.23684211       0.00000000       0.00000000 </v>
   <v>       0.26315789       0.00000000       0.00000000 </v>
   <v>       0.28947368       0.00000000       0.00000000 </v>
   <v>       0.31578947       0.00000000       0.00000000 </v>
   <v>       0.34210526       0.00000000       0.00000000 </v>
   <v>       0.36842105       0.00000000       0.00000000 </v>
   <v>       0.39473684       0.00000000       0.00000000 </v>
   <v>       0.42105263       0.00000000       0.00000000 </v>
   <v>       0.44736842       0.00000000       0.00000000 </v>
   <v>       0.47368421       0.00000000       0.00000000 </v>
   <v>       0.50000000       0.00000000       0.00000000 </v>
   <v>       0.50000000       0.00000000       0.00000000 </v>
   <v>       0.50000000       0.02631579       0.00000000 </v>
   <v>       0.50000000       0.05263158       0.00000000 </v>
   <v>       0.50000000       0.07894737       0.00000000 </v>
   <v>       0.50000000       0.10526316       0.00000000 </v>
   <v>       0.50000000       0.13157895       0.00000000 </v>
   <v>       0.50000000       0.15789474       0.00000000 </v>
   <v>       0.50000000       0.18421053       0.00000000 </v>
   <v>       0.50000000       0.21052632       0.00000000 </v>
   <v>       0.50000000       0.23684211       0.00000000 </v>
   <v>       0.50000000       0.26315789       0.00000000 </v>
   <v>       0.50000000       0.28947368       0.00000000 </v>
   <v>       0.50000000       0.31578947       0.00000000 </v>
   <v>       0.50000000       0.34210526       0.00000000 </v>
   <v>       0.50000000       0.36842105       0.00000000 </v>
   <v>       0.50000000       0.39473684       0.00000000 </v>
   <v>       0.50000000       0.42105263       0.00000000 </v>
   <v>       0.50000000       0.44736842       0.00000000 </v>
   <v>       0.50000000       0.47368421       0.00000000 </v>
   <v>       0.50000000       0.50000000       0.00000000 </v>
   <v>       0.50000000       0.50000000       0.00000000 </v>
   <v>       0.47368421       0.47368421       0.00000000 </v>
   <v>       0.44736842       0.44736842       0.00000000 </v>
   <v>       0.42105263       0.42105263       0.00000000 </v>
   <v>       0.39473684       0.39473684       0.00000000 </v>
   <v>       0.36842105       0.36842105       0.00000000 </v>
   <v>       0.34210526       0.34210526       0.00000000 </v>
   <v>       0.31578947       0.31578947       0.00000000 </v>
   <v>       0.28947368       0.28947368       0.00000000 </v>
   <v>       0.26315789       0.26315789       0.00000000 </v>
   <v>       0.23684211       0.23684211       0.00000000 </v>
   <v>       0.21052632       0.21052632       0.00000000 </v>
   <v>       0.18421053       0.18421053       0.00000000 </v>
   <v>       0.15789474       0.15789474       0.00000000 </v>
   <v>       0.13157895       0.13157895       0.00000000 </v>
   <v>       0.10526316       0.10526316       0.00000000 </v>
   <v>       0.07894737       0.07894737       0.00000000 </v>
   <v>       0.05263158       0.05263158       0.00000000 </v>
   <v>       0.02631579       0.02631579       0.00000000 </v>
   <v>       0.00000000       0.00000000       0.00000000 </v>
  </varray>
  <varray name="weights" >
   <v>       0.01666667 </v>
   <v>       0.01666667 </v>
   <v>       0.01666667 </v>
   <v>       0.01666667 </v>
   <v>       0.01666667 </v>
   <v>       0.01666667 </v>
   <v>       0.01666667 </v>
   <v>       0.01666667 </v>
   <v>       0.01666667 </v>
   <v>       0.01666667 </v>
   <v>       0.01666667 </v>
   <v>       0.01666667 </v>
   <v>       0.01666667 </v>
   <v>       0.01666667 </v>
   <v>       0.01666667 </v>
   <v>       0.01666667 </v>
   <v>       0.01666667 </v>
   <v>       0.01666667 </v>
   <v>       0.01666667 </v>
   <v>       0.01666667 </v>
   <v>       0.01666667 </v>
   <v>       0.01666667 </v>
   <v>       0.01666667 </v>
   <v>       0.01666667 </v>
   <v>       0.01666667 </v>
   <v>       0.01666667 </v>
   <v>       0.01666667 </v>
   <v>       0.01666667 </v>
   <v>       0.01666667 </v>
   <v>       0.01666667 </v>
   <v>       0.01666667 </v>
   <v>       0.01666667 </v>
   <v>       0.01666667 </v>
   <v>       0.01666667 </v>
   <v>       0.01666667 </v>
   <v>       0.01666667 </v>
   <v>       0.01666667 </v>
   <v>       0.01666667 </v>
   <v>       0.01666667 </v>
   <v>       0.01666667 </v>
   <v>       0.01666667 </v>
   <v>       0.01666667 </v>
   <v>       0.01666667 </v>
   <v>       0.01666667 </v>
   <v>       0.01666667 </v>
   <v>       0.01666667 </v>
   <v>       0.01666667 </v>
   <v>       0.01666667 </v>
   <v>       0.01666667 </v>
   <v>       0.01666667 </v>
   <v>       0.01666667 </v>
   <v>       0.01666667 </v>
   <v>       0.01666667 </v>
   <v>       0.01666667 </v>
   <v>       0.01666667 </v>
   <v>       0.01666667 </v>
   <v>       0.01666667 </v>
   <v>       0.01666667 </v>
   <v>       0.01666667 </v>
   <v>       0.01666667 </v>
  </varray>
 </kpoints>
 <parameters>
  <separator name="general" >
   <i type="string" name="SYSTEM">Simulation for cell shape cell volume r</i>
   <i type="logical" name="LCOMPAT"> F  </i>
  </separator>
  <separator name="electronic" >
   <i type="string" name="PREC">high</i>
   <i name="ENMAX">    500.00000000</i>
   <i name="ENAUG">    644.87300000</i>
   <i name="EDIFF">      0.00001000</i>
   <i type="int" name="IALGO">    38</i>
   <i type="int" name="IWAVPR">    10</i>
   <i type="int" name="NBANDS">   224</i>
   <i name="NELECT">    330.00000000</i>
   <i type="int" name="TURBO">     0</i>
   <i type="int" name="IRESTART">     0</i>
   <i type="int" name="NREBOOT">     0</i>
   <i type="int" name="NMIN">     0</i>
   <i name="EREF">      0.00000000</i>
   <separator name="electronic smearing" >
    <i type="int" name="ISMEAR">     0</i>
    <i name="SIGMA">      0.01000000</i>
    <i name="KSPACING">      0.50000000</i>
    <i type="logical" name="KGAMMA"> T  </i>
   </separator>
   <separator name="electronic projectors" >
    <i type="logical" name="LREAL"> T  </i>
    <v name="ROPT">     -0.00040000     -0.00040000     -0.00040000</v>
    <i type="int" name="LMAXPAW">  -100</i>
    <i type="int" name="LMAXMIX">     2</i>
    <i type="logical" name="NLSPLINE"> F  </i>
   </separator>
   <separator name="electronic startup" >
    <i type="int" name="ISTART">     1</i>
    <i type="int" name="ICHARG">    11</i>
    <i type="int" name="INIWAV">     1</i>
   </separator>
   <separator name="electronic spin" >
    <i type="int" name="ISPIN">     1</i>
    <i type="logical" name="LNONCOLLINEAR"> F  </i>
    <v name="MAGMOM">      1.00000000      1.00000000      1.00000000      1.00000000      1.00000000      1.00000000      1.00000000      1.00000000      1.00000000      1.00000000      1.00000000      1.00000000      1.00000000      1.00000000      1.00000000      1.00000000      1.00000000      1.00000000      1.00000000      1.00000000
      1.00000000      1.00000000      1.00000000      1.00000000      1.00000000      1.00000000      1.00000000      1.00000000      1.00000000      1.00000000      1.00000000      1.00000000      1.00000000      1.00000000      1.00000000      1.00000000      1.00000000      1.00000000      1.00000000      1.00000000
      1.00000000      1.00000000      1.00000000      1.00000000      1.00000000      1.00000000      1.00000000      1.00000000      1.00000000      1.00000000      1.00000000      1.00000000      1.00000000      1.00000000      1.00000000      1.00000000      1.00000000      1.00000000      1.00000000      1.00000000
      1.00000000      1.00000000      1.00000000      1.00000000      1.00000000      1.00000000      1.00000000      1.00000000      1.00000000      1.00000000      1.00000000      1.00000000      1.00000000      1.00000000      1.00000000      1.00000000      1.00000000      1.00000000      1.00000000      1.00000000
      1.00000000      1.00000000      1.00000000      1.00000000      1.00000000      1.00000000      1.00000000      1.00000000      1.00000000      1.00000000      1.00000000      1.00000000      1.00000000      1.00000000      1.00000000      1.00000000      1.00000000      1.00000000      1.00000000      1.00000000
      1.00000000      1.00000000      1.00000000      1.00000000      1.00000000      1.00000000      1.00000000      1.00000000      1.00000000      1.00000000      1.00000000      1.00000000</v>
    <i name="NUPDOWN">     -1.00000000</i>
    <i type="logical" name="LSORBIT"> F  </i>
    <v name="SAXIS">      0.00000000      0.00000000      1.00000000</v>
    <i type="logical" name="LSPIRAL"> F  </i>
    <v name="QSPIRAL">      0.00000000      0.00000000      0.00000000</v>
    <i type="logical" name="LZEROZ"> F  </i>
   </separator>
   <separator name="electronic exchange-correlation" >
    <i type="logical" name="LASPH"> F  </i>
    <i type="logical" name="LMETAGGA"> F  </i>
   </separator>
   <separator name="electronic convergence" >
    <i type="int" name="NELM">   200</i>
    <i type="int" name="NELMDL">     0</i>
    <i type="int" name="NELMIN">     2</i>
    <i name="ENINI">    500.00000000</i>
    <separator name="electronic convergence detail" >
     <i type="logical" name="LDIAG"> T  </i>
     <i type="logical" name="LSUBROT"> F  </i>
     <i name="WEIMIN">      0.00000000</i>
     <i name="EBREAK">      0.00000001</i>
     <i name="DEPER">      0.30000000</i>
     <i type="int" name="NRMM">     4</i>
     <i name="TIME">      0.40000000</i>
    </separator>
   </separator>
   <separator name="electronic mixer" >
    <i name="AMIX">      0.40000000</i>
    <i name="BMIX">      1.00000000</i>
    <i name="AMIN">      0.10000000</i>
    <i name="AMIX_MAG">      1.60000000</i>
    <i name="BMIX_MAG">      1.00000000</i>
    <separator name="electronic mixer details" >
     <i type="int" name="IMIX">     4</i>
     <i type="logical" name="MIXFIRST"> F  </i>
     <i type="int" name="MAXMIX">   -45</i>
     <i name="WC">    100.00000000</i>
     <i type="int" name="INIMIX">     1</i>
     <i type="int" name="MIXPRE">     1</i>
     <i type="int" name="MREMOVE">     5</i>
    </separator>
   </separator>
   <separator name="electronic dipolcorrection" >
    <i type="logical" name="LDIPOL"> F  </i>
    <i type="logical" name="LMONO"> F  </i>
    <i type="int" name="IDIPOL">     0</i>
    <i name="EPSILON">      1.00000000</i>
    <v name="DIPOL">   -100.00000000   -100.00000000   -100.00000000</v>
    <i name="EFIELD">      0.00000000</i>
   </separator>
  </separator>
  <separator name="grids" >
   <i type="int" name="NGX">   192</i>
   <i type="int" name="NGY">   192</i>
   <i type="int" name="NGZ">   150</i>
   <i type="int" name="NGXF">   288</i>
   <i type="int" name="NGYF">   288</i>
   <i type="int" name="NGZF">   224</i>
   <i type="logical" name="ADDGRID"> F  </i>
  </separator>
  <separator name="ionic" >
   <i type="int" name="NSW">     0</i>
   <i type="int" name="IBRION">    -1</i>
   <i type="int" name="MDALGO">     0</i>
   <i type="int" name="ISIF">     2</i>
   <i name="PSTRESS">      0.00000000</i>
   <i name="EDIFFG">     -0.01000000</i>
   <i type="int" name="NFREE">     0</i>
   <i name="POTIM">      0.30000000</i>
   <i name="SMASS">     -3.00000000</i>
   <i name="SCALEE">      1.00000000</i>
  </separator>
  <separator name="ionic md" >
   <i name="TEBEG">      0.00010000</i>
   <i name="TEEND">      0.00010000</i>
   <i type="int" name="NBLOCK">     1</i>
   <i type="int" name="KBLOCK">     1</i>
   <i type="int" name="NPACO">   256</i>
   <i name="APACO">     16.00000000</i>
  </separator>
  <separator name="symmetry" >
   <i type="int" name="ISYM">     2</i>
   <i name="SYMPREC">      0.00001000</i>
  </separator>
  <separator name="dos" >
   <i type="int" name="LORBIT">     0</i>
   <v name="RWIGS">     -1.00000000     -1.00000000     -1.00000000</v>
   <i type="int" name="NEDOS">   301</i>
   <i name="EMIN">     10.00000000</i>
   <i name="EMAX">    -10.00000000</i>
   <i name="EFERMI">      0.00000000</i>
  </separator>
  <separator name="writing" >
   <i type="int" name="NWRITE">     0</i>
   <i type="logical" name="LWAVE"> F  </i>
   <i type="logical" name="LDOWNSAMPLE"> F  </i>
   <i type="logical" name="LCHARG"> F  </i>
   <i type="logical" name="LPARD"> F  </i>
   <i type="logical" name="LVTOT"> F  </i>
   <i type="logical" name="LVHAR"> F  </i>
   <i type="logical" name="LELF"> F  </i>
   <i type="logical" name="LOPTICS"> F  </i>
   <v name="STM">      0.00000000      0.00000000      0.00000000      0.00000000      0.00000000      0.00000000      0.00000000</v>
  </separator>
  <separator name="performance" >
   <i type="int" name="NPAR">    16</i>
   <i type="int" name="NSIM">     4</i>
   <i type="int" name="NBLK">    -1</i>
   <i type="logical" name="LPLANE"> T  </i>
   <i type="logical" name="LSCALAPACK"> T  </i>
   <i type="logical" name="LSCAAWARE"> F  </i>
   <i type="logical" name="LSCALU"> F  </i>
   <i type="logical" name="LASYNC"> F  </i>
   <i type="logical" name="LORBITALREAL"> F  </i>
  </separator>
  <separator name="miscellaneous" >
   <i type="int" name="IDIOT">     3</i>
   <i type="int" name="ISPECIAL">     0</i>
   <i type="logical" name="LMUSIC"> F  </i>
   <v name="POMASS">     14.00100000     12.01100000      1.00000000</v>
   <v name="DARWINR">      0.00000000      0.00000000      0.00000000</v>
   <v name="DARWINV">      1.00000000      1.00000000      1.00000000</v>
   <i type="logical" name="LCORR"> T  </i>
  </separator>
  <i type="logical" name="GGA_COMPAT"> T  </i>
  <i type="logical" name="LBERRY"> F  </i>
  <i type="int" name="ICORELEVEL">     0</i>
  <i type="logical" name="LDAU"> F  </i>
  <i type="int" name="I_CONSTRAINED_M">     0</i>
  <separator name="electronic exchange-correlation" >
   <i type="string" name="GGA">PE</i>
   <i type="int" name="VOSKOWN">     0</i>
   <i type="logical" name="LHFCALC"> F  </i>
   <i type="string" name="PRECFOCK"></i>
   <i type="logical" name="LSYMGRAD"> F  </i>
   <i type="logical" name="LHFONE"> F  </i>
   <i type="logical" name="LRHFCALC"> F  </i>
   <i type="logical" name="LTHOMAS"> F  </i>
   <i type="logical" name="LMODELHF"> F  </i>
   <i name="ENCUT4O">     -1.00000000</i>
   <i type="int" name="EXXOEP">     0</i>
   <i type="int" name="FOURORBIT">     0</i>
   <i name="AEXX">      0.00000000</i>
   <i name="HFALPHA">      0.00000000</i>
   <i name="MCALPHA">      0.00000000</i>
   <i name="ALDAX">      1.00000000</i>
   <i name="AGGAX">      1.00000000</i>
   <i name="ALDAC">      1.00000000</i>
   <i name="AGGAC">      1.00000000</i>
   <i type="int" name="NKREDX">     1</i>
   <i type="int" name="NKREDY">     1</i>
   <i type="int" name="NKREDZ">     1</i>
   <i type="logical" name="SHIFTRED"> F  </i>
   <i type="logical" name="ODDONLY"> F  </i>
   <i type="logical" name="EVENONLY"> F  </i>
   <i type="int" name="LMAXFOCK">     0</i>
   <i type="int" name="NMAXFOCKAE">     0</i>
   <i type="logical" name="LFOCKAEDFT"> F  </i>
   <i name="HFSCREEN">      0.00000000</i>
   <i name="HFSCREENC">      0.00000000</i>
   <i type="int" name="NBANDSGWLOW">     0</i>
  </separator>
  <separator name="vdW DFT" >
   <i type="logical" name="LUSE_VDW"> F  </i>
   <i name="Zab_VDW">     -0.84910000</i>
   <i name="PARAM1">      0.12340000</i>
   <i name="PARAM2">      1.00000000</i>
   <i name="PARAM3">      0.00000000</i>
  </separator>
  <separator name="model GW" >
   <i type="int" name="MODEL_GW">     0</i>
   <i name="MODEL_EPS0">     70.36290646</i>
   <i name="MODEL_ALPHA">      1.00000000</i>
  </separator>
  <separator name="linear response parameters" >
   <i type="logical" name="LEPSILON"> F  </i>
   <i type="logical" name="LRPA"> F  </i>
   <i type="logical" name="LNABLA"> F  </i>
   <i type="logical" name="LVEL"> F  </i>
   <i type="int" name="KINTER">     0</i>
   <i name="CSHIFT">      0.10000000</i>
   <i name="OMEGAMAX">     -1.00000000</i>
   <i name="DEG_THRESHOLD">      0.00200000</i>
   <i name="RTIME">     -0.10000000</i>
   <i name="WPLASMAI">      0.00000000</i>
   <v name="DFIELD">      0.00000000      0.00000000      0.00000000</v>
   <v name="WPLASMA">      0.00000000      0.00000000      0.00000000      0.00000000      0.00000000      0.00000000      0.00000000      0.00000000      0.00000000</v>
  </separator>
  <separator name="orbital magnetization" >
   <i type="logical" name="NUCIND"> F  </i>
   <v name="MAGPOS">      0.00000000      0.00000000      0.00000000</v>
   <i type="logical" name="LNICSALL"> T  </i>
   <i type="logical" name="ORBITALMAG"> F  </i>
   <i type="logical" name="LMAGBLOCH"> F  </i>
   <i type="logical" name="LCHIMAG"> F  </i>
   <i type="logical" name="LGAUGE"> T  </i>
   <i type="int" name="MAGATOM">     0</i>
   <v name="MAGDIPOL">      0.00000000      0.00000000      0.00000000</v>
   <v name="AVECCONST">      0.00000000      0.00000000      0.00000000</v>
  </separator>
  <separator name="response functions" >
   <i type="logical" name="LADDER"> F  </i>
   <i type="logical" name="LRPAFORCE"> F  </i>
   <i type="logical" name="LFXC"> F  </i>
   <i type="logical" name="LHARTREE"> T  </i>
   <i type="int" name="IBSE">     0</i>
   <v type="int" name="KPOINT">    -1     0     0     0</v>
   <i type="logical" name="LTCTE"> F  </i>
   <i type="logical" name="LTETE"> F  </i>
   <i type="logical" name="LTRIPLET"> F  </i>
   <i type="logical" name="LFXCEPS"> F  </i>
   <i type="logical" name="LFXHEG"> F  </i>
   <i type="int" name="NATURALO">     2</i>
   <i type="logical" name="L2ORDER"> F  </i>
   <i type="logical" name="LMP2LT"> F  </i>
   <i type="logical" name="LUSEW"> F  </i>
   <i name="ENCUTGW">     -2.00000000</i>
   <i name="ENCUTGWSOFT">     -2.00000000</i>
   <i name="ENCUTLF">     -1.00000000</i>
   <i type="int" name="LMAXMP2">    -1</i>
   <i name="SCISSOR">      0.00000000</i>
   <i type="int" name="NOMEGA">     0</i>
   <i type="int" name="NOMEGAR">     0</i>
   <i type="int" name="NBANDSGW">    -1</i>
   <i type="int" name="NBANDSO">    -1</i>
   <i type="int" name="NBANDSV">    -1</i>
   <i type="int" name="NELM">   200</i>
   <i type="int" name="NELMHF">     1</i>
   <i type="int" name="DIM">     3</i>
   <i type="int" name="ANTIRES">     0</i>
   <i name="OMEGAMAX">    -30.00000000</i>
   <i name="OMEGAMIN">    -30.00000000</i>
   <i name="OMEGATL">   -200.00000000</i>
   <i type="int" name="OMEGAGRID">   140</i>
   <i name="CSHIFT">     -0.10000000</i>
   <i type="logical" name="SELFENERGY"> F  </i>
   <i type="logical" name="LSPECTRAL"> F  </i>
   <i type="logical" name="LSPECTRALGW"> F  </i>
   <i type="logical" name="LSINGLES"> F  </i>
   <i type="logical" name="LFERMIGW"> F  </i>
   <i type="logical" name="ODDONLYGW"> F  </i>
   <i type="logical" name="EVENONLYGW"> F  </i>
   <i type="int" name="NKREDLFX">     1</i>
   <i type="int" name="NKREDLFY">     1</i>
   <i type="int" name="NKREDLFZ">     1</i>
   <i type="int" name="MAXMEM">  2800</i>
   <i type="int" name="TELESCOPE">     0</i>
   <i type="int" name="TAUPAR">     1</i>
   <i type="int" name="OMEGAPAR">    -1</i>
   <i name="LAMBDA">      1.00000000</i>
  </separator>
  <separator name="External order field" >
   <i name="OFIELD_KAPPA">      0.00000000</i>
   <v name="OFIELD_K">      0.00000000      0.00000000      0.00000000</v>
   <i name="OFIELD_Q6_NEAR">      0.00000000</i>
   <i name="OFIELD_Q6_FAR">      0.00000000</i>
   <i name="OFIELD_A">      0.00000000</i>
  </separator>
  <separator name="solvation model" >
   <i type="logical" name="LSOL"> F  </i>
  </separator>
 </parameters>
 <atominfo>
  <atoms>     112 </atoms>
  <types>       3 </types>
  <array name="atoms" >
   <dimension dim="1">ion</dimension>
   <field type="string">element</field>
   <field type="int">atomtype</field>
   <set>
    <rc><c>N </c><c>   1</c></rc>
    <rc><c>N </c><c>   1</c></rc>
    <rc><c>N </c><c>   1</c></rc>
    <rc><c>N </c><c>   1</c></rc>
    <rc><c>N </c><c>   1</c></rc>
    <rc><c>N </c><c>   1</c></rc>
    <rc><c>N </c><c>   1</c></rc>
    <rc><c>N </c><c>   1</c></rc>
    <rc><c>C </c><c>   2</c></rc>
    <rc><c>C </c><c>   2</c></rc>
    <rc><c>C </c><c>   2</c></rc>
    <rc><c>C </c><c>   2</c></rc>
    <rc><c>C </c><c>   2</c></rc>
    <rc><c>C </c><c>   2</c></rc>
    <rc><c>C </c><c>   2</c></rc>
    <rc><c>C </c><c>   2</c></rc>
    <rc><c>C </c><c>   2</c></rc>
    <rc><c>C </c><c>   2</c></rc>
    <rc><c>C </c><c>   2</c></rc>
    <rc><c>C </c><c>   2</c></rc>
    <rc><c>C </c><c>   2</c></rc>
    <rc><c>C </c><c>   2</c></rc>
    <rc><c>C </c><c>   2</c></rc>
    <rc><c>C </c><c>   2</c></rc>
    <rc><c>C </c><c>   2</c></rc>
    <rc><c>C </c><c>   2</c></rc>
    <rc><c>C </c><c>   2</c></rc>
    <rc><c>C </c><c>   2</c></rc>
    <rc><c>C </c><c>   2</c></rc>
    <rc><c>C </c><c>   2</c></rc>
    <rc><c>C </c><c>   2</c></rc>
    <rc><c>C </c><c>   2</c></rc>
    <rc><c>C </c><c>   2</c></rc>
    <rc><c>C </c><c>   2</c></rc>
    <rc><c>C </c><c>   2</c></rc>
    <rc><c>C </c><c>   2</c></rc>
    <rc><c>C </c><c>   2</c></rc>
    <rc><c>C </c><c>   2</c></rc>
    <rc><c>C </c><c>   2</c></rc>
    <rc><c>C </c><c>   2</c></rc>
    <rc><c>C </c><c>   2</c></rc>
    <rc><c>C </c><c>   2</c></rc>
    <rc><c>C </c><c>   2</c></rc>
    <rc><c>C </c><c>   2</c></rc>
    <rc><c>C </c><c>   2</c></rc>
    <rc><c>C </c><c>   2</c></rc>
    <rc><c>C </c><c>   2</c></rc>
    <rc><c>C </c><c>   2</c></rc>
    <rc><c>C </c><c>   2</c></rc>
    <rc><c>C </c><c>   2</c></rc>
    <rc><c>C </c><c>   2</c></rc>
    <rc><c>C </c><c>   2</c></rc>
    <rc><c>C </c><c>   2</c></rc>
    <rc><c>C </c><c>   2</c></rc>
    <rc><c>C </c><c>   2</c></rc>
    <rc><c>C </c><c>   2</c></rc>
    <rc><c>C </c><c>   2</c></rc>
    <rc><c>C </c><c>   2</c></rc>
    <rc><c>C </c><c>   2</c></rc>
    <rc><c>C </c><c>   2</c></rc>
    <rc><c>C </c><c>   2</c></rc>
    <rc><c>C </c><c>   2</c></rc>
    <rc><c>C </c><c>   2</c></rc>
    <rc><c>C </c><c>   2</c></rc>
    <rc><c>C </c><c>   2</c></rc>
    <rc><c>C </c><c>   2</c></rc>
    <rc><c>C </c><c>   2</c></rc>
    <rc><c>C </c><c>   2</c></rc>
    <rc><c>C </c><c>   2</c></rc>
    <rc><c>C </c><c>   2</c></rc>
    <rc><c>H </c><c>   3</c></rc>
    <rc><c>H </c><c>   3</c></rc>
    <rc><c>H </c><c>   3</c></rc>
    <rc><c>H </c><c>   3</c></rc>
    <rc><c>H </c><c>   3</c></rc>
    <rc><c>H </c><c>   3</c></rc>
    <rc><c>H </c><c>   3</c></rc>
    <rc><c>H </c><c>   3</c></rc>
    <rc><c>H </c><c>   3</c></rc>
    <rc><c>H </c><c>   3</c></rc>
    <rc><c>H </c><c>   3</c></rc>
    <rc><c>H </c><c>   3</c></rc>
    <rc><c>H </c><c>   3</c></rc>
    <rc><c>H </c><c>   3</c></rc>
    <rc><c>H </c><c>   3</c></rc>
    <rc><c>H </c><c>   3</c></rc>
    <rc><c>H </c><c>   3</c></rc>
    <rc><c>H </c><c>   3</c></rc>
    <rc><c>H </c><c>   3</c></rc>
    <rc><c>H </c><c>   3</c></rc>
    <rc><c>H </c><c>   3</c></rc>
    <rc><c>H </c><c>   3</c></rc>
    <rc><c>H </c><c>   3</c></rc>
    <rc><c>H </c><c>   3</c></rc>
    <rc><c>H </c><c>   3</c></rc>
    <rc><c>H </c><c>   3</c></rc>
    <rc><c>H </c><c>   3</c></rc>
    <rc><c>H </c><c>   3</c></rc>
    <rc><c>H </c><c>   3</c></rc>
    <rc><c>H </c><c>   3</c></rc>
    <rc><c>H </c><c>   3</c></rc>
    <rc><c>H </c><c>   3</c></rc>
    <rc><c>H </c><c>   3</c></rc>
    <rc><c>H </c><c>   3</c></rc>
    <rc><c>H </c><c>   3</c></rc>
    <rc><c>H </c><c>   3</c></rc>
    <rc><c>H </c><c>   3</c></rc>
    <rc><c>H </c><c>   3</c></rc>
    <rc><c>H </c><c>   3</c></rc>
    <rc><c>H </c><c>   3</c></rc>
    <rc><c>H </c><c>   3</c></rc>
    <rc><c>H </c><c>   3</c></rc>
   </set>
  </array>
  <array name="atomtypes" >
   <dimension dim="1">type</dimension>
   <field type="int">atomspertype</field>
   <field type="string">element</field>
   <field>mass</field>
   <field>valence</field>
   <field type="string">pseudopotential</field>
   <set>
    <rc><c>   8</c><c>N </c><c>     14.00100000</c><c>      5.00000000</c><c>  PAW_PBE N 08Apr2002                   </c></rc>
    <rc><c>  62</c><c>C </c><c>     12.01100000</c><c>      4.00000000</c><c>  PAW_PBE C 08Apr2002                   </c></rc>
    <rc><c>  42</c><c>H </c><c>      1.00000000</c><c>      1.00000000</c><c>  PAW_PBE H 15Jun2001                   </c></rc>
   </set>
  </array>
 </atominfo>
 <structure name="initialpos" >
  <crystal>
   <varray name="basis" >
    <v>      25.63045014       0.01337854       0.00000000 </v>
    <v>      -0.00324492      25.62266418       0.00000000 </v>
    <v>       0.00000000       0.00000000      20.00000000 </v>
   </varray>
   <i name="volume">  13134.40920551 </i>
   <varray name="rec_basis" >
    <v>       0.03901609       0.00000494       0.00000000 </v>
    <v>      -0.00002037       0.03902795       0.00000000 </v>
    <v>       0.00000000       0.00000000       0.05000000 </v>
   </varray>
  </crystal>
  <varray name="positions" >
   <v>       0.99699807       0.38108089       0.47870421 </v>
   <v>       0.60113232       0.99482427       0.47532151 </v>
   <v>       0.04746223       0.05145311       0.50377369 </v>
   <v>       0.93308134       0.04387110       0.50193642 </v>
   <v>       0.93663163       0.92938027       0.50134972 </v>
   <v>       0.05102008       0.93689701       0.50351466 </v>
   <v>       0.98886388       0.60012082       0.47296516 </v>
   <v>       0.38210511       0.98611385       0.47330430 </v>
   <v>       0.21586354       0.97993094       0.45562366 </v>
   <v>       0.26996079       0.98218495       0.45791486 </v>
   <v>       0.98321968       0.76632229       0.45317923 </v>
   <v>       0.98552882       0.71221925       0.45597122 </v>
   <v>       0.71344270       0.99841170       0.45619975 </v>
   <v>       0.76752632       0.00115374       0.45311730 </v>
   <v>       0.00270755       0.21493334       0.45627746 </v>
   <v>       0.00037741       0.26902865       0.45966557 </v>
   <v>       0.99454850       0.43539548       0.48338145 </v>
   <v>       0.98949300       0.46239554       0.42225121 </v>
   <v>       0.98633702       0.51632073       0.41988888 </v>
   <v>       0.54688031       0.99236001       0.48093316 </v>
   <v>       0.51926775       0.98710621       0.42029292 </v>
   <v>       0.46534961       0.98381266       0.41884138 </v>
   <v>       0.08394819       0.13147753       0.50749725 </v>
   <v>       0.12360492       0.09544369       0.50728075 </v>
   <v>       0.10069654       0.04436550       0.50584791 </v>
   <v>       0.03533319       0.10379841       0.50471279 </v>
   <v>       0.98493291       0.12563856       0.50450871 </v>
   <v>       0.93768776       0.09718909       0.50291830 </v>
   <v>       0.88044514       0.03421807       0.50184394 </v>
   <v>       0.85082266       0.08283256       0.50261424 </v>
   <v>       0.88647605       0.12206196       0.50219658 </v>
   <v>       0.85673766       0.98441909       0.50251019 </v>
   <v>       0.88338202       0.93638207       0.50194129 </v>
   <v>       0.94880411       0.87703448       0.50196588 </v>
   <v>       0.90020546       0.84927827       0.50246850 </v>
   <v>       0.86051804       0.88527184       0.50160632 </v>
   <v>       0.99916401       0.85519735       0.50352804 </v>
   <v>       0.04641981       0.88359547       0.50397608 </v>
   <v>       0.10361783       0.94652804       0.50479844 </v>
   <v>       0.13325399       0.89790853       0.50613675 </v>
   <v>       0.09761408       0.85868223       0.50468227 </v>
   <v>       0.12729164       0.99631829       0.50623082 </v>
   <v>       0.18532098       0.99892316       0.50892314 </v>
   <v>       0.29546063       0.00420618       0.51354357 </v>
   <v>       0.26508313       0.02347808       0.56660773 </v>
   <v>       0.21084210       0.02052161       0.56457186 </v>
   <v>       0.00209961       0.79717575       0.50623406 </v>
   <v>       0.00743128       0.68704466       0.51192181 </v>
   <v>       0.02672038       0.71774488       0.56466858 </v>
   <v>       0.02371607       0.77197356       0.56213322 </v>
   <v>       0.79872031       0.98153224       0.50541392 </v>
   <v>       0.77384008       0.95863955       0.56072319 </v>
   <v>       0.71966495       0.95502873       0.56339805 </v>
   <v>       0.68865506       0.97510300       0.51145556 </v>
   <v>       0.98193300       0.18365625       0.50775689 </v>
   <v>       0.95834373       0.20848613       0.56262731 </v>
   <v>       0.97643528       0.29376963       0.51451830 </v>
   <v>       0.95518251       0.26270246       0.56560550 </v>
   <v>       0.01085201       0.63023516       0.51608321 </v>
   <v>       0.63181817       0.97116685       0.51616190 </v>
   <v>       0.97283936       0.35064817       0.51932544 </v>
   <v>       0.35227178       0.00784387       0.51697413 </v>
   <v>       0.99122111       0.54577930       0.47894059 </v>
   <v>       0.99762385       0.51886482       0.53978815 </v>
   <v>       0.99930838       0.46446023       0.54376646 </v>
   <v>       0.00823810       0.43935941       0.61113384 </v>
   <v>       0.43647876       0.98871520       0.47837277 </v>
   <v>       0.46399835       0.99538221       0.53872863 </v>
   <v>       0.51842408       0.99726423       0.54181399 </v>
   <v>       0.54404971       0.00656677       0.60878205 </v>
   <v>       0.01636267       0.29321658       0.41976836 </v>
   <v>       0.02038228       0.19603866       0.41294853 </v>
   <v>       0.78649269       0.01834160       0.40952880 </v>
   <v>       0.68929954       0.01359993       0.41573864 </v>
   <v>       0.96702606       0.78558049       0.40915917 </v>
   <v>       0.97108089       0.68831111       0.41485847 </v>
   <v>       0.29361304       0.96756800       0.41663963 </v>
   <v>       0.19631862       0.96354779       0.41194143 </v>
   <v>       0.98725511       0.43922035       0.37659653 </v>
   <v>       0.98131347       0.53689323       0.37259618 </v>
   <v>       0.54200326       0.98483227       0.37429062 </v>
   <v>       0.44431337       0.97861183       0.37192176 </v>
   <v>       0.93646892       0.28143102       0.60843297 </v>
   <v>       0.94248395       0.18475741       0.60307453 </v>
   <v>       0.08765145       0.17359090       0.50948161 </v>
   <v>       0.16518723       0.10314450       0.50816265 </v>
   <v>       0.02069754       0.02198360       0.50270070 </v>
   <v>       0.96336979       0.95889408       0.50171800 </v>
   <v>       0.87893215       0.16372509       0.50141512 </v>
   <v>       0.80864408       0.08638935       0.50334561 </v>
   <v>       0.79750753       0.94376957       0.60186665 </v>
   <v>       0.70092138       0.93695638       0.60665889 </v>
   <v>       0.81895366       0.87749777       0.50077943 </v>
   <v>       0.89656317       0.80713432       0.50333073 </v>
   <v>       0.17541876       0.89437319       0.50796593 </v>
   <v>       0.10511190       0.81700344       0.50406965 </v>
   <v>       0.03808927       0.79540524       0.60377066 </v>
   <v>       0.04377411       0.69869527       0.60840133 </v>
   <v>       0.18768435       0.03480654       0.60652577 </v>
   <v>       0.28440562       0.04046002       0.61016949 </v>
   <v>       0.03416445       0.61486938       0.55833331 </v>
   <v>       0.61706269       0.94562737       0.55645524 </v>
   <v>       0.94702493       0.36559370       0.55920789 </v>
   <v>       0.36787775       0.03113877       0.55910144 </v>
   <v>       0.00066323       0.54109055       0.58625617 </v>
   <v>       0.02933908       0.46628186       0.64419954 </v>
   <v>       0.97143599       0.42927595       0.63637887 </v>
   <v>       0.03117076       0.40326002       0.60702886 </v>
   <v>       0.44224374       0.99845601       0.58556032 </v>
   <v>       0.51742034       0.02796627       0.64196655 </v>
   <v>       0.55425811       0.96990241       0.63432787 </v>
   <v>       0.58015561       0.02938227       0.60405004 </v>
  </varray>
 </structure>
 <calculation>
  <scstep>
   <time name="dav">  424.84  429.46</time>
   <time name="total">  425.04  429.67</time>
   <energy>
    <i name="alphaZ">     38.89292646 </i>
    <i name="ewald">  41415.25154127 </i>
    <i name="hartreedc"> -51029.78662786 </i>
    <i name="XCdc">   1127.18950228 </i>
    <i name="pawpsdc">  30131.98352743 </i>
    <i name="pawaedc"> -30186.76623614 </i>
    <i name="eentropy">     -0.00000000 </i>
    <i name="bandstr">  -4036.32373446 </i>
    <i name="atom">  11763.91099425 </i>
    <i name="e_fr_energy">   -775.64810676 </i>
    <i name="e_wo_entrp">   -775.64810676 </i>
    <i name="e_0_energy">   -775.64810676 </i>
   </energy>
  </scstep>
  <scstep>
   <time name="dav">  493.11  498.76</time>
   <time name="total">  493.11  498.76</time>
   <energy>
    <i name="e_fr_energy">   -776.15477022 </i>
    <i name="e_wo_entrp">   -776.15477022 </i>
    <i name="e_0_energy">   -776.15477022 </i>
   </energy>
  </scstep>
  <scstep>
   <time name="dav">  531.72  537.80</time>
   <time name="total">  531.72  537.81</time>
   <energy>
    <i name="e_fr_energy">   -776.16881696 </i>
    <i name="e_wo_entrp">   -776.16881696 </i>
    <i name="e_0_energy">   -776.16881696 </i>
   </energy>
  </scstep>
  <scstep>
   <time name="dav">  489.49  494.88</time>
   <time name="total">  489.49  494.88</time>
   <energy>
    <i name="e_fr_energy">   -776.16906012 </i>
    <i name="e_wo_entrp">   -776.16906012 </i>
    <i name="e_0_energy">   -776.16906012 </i>
   </energy>
  </scstep>
  <scstep>
   <time name="dav">  464.52  469.60</time>
   <time name="total">  464.52  469.61</time>
   <energy>
    <i name="e_fr_energy">   -776.16907174 </i>
    <i name="e_wo_entrp">   -776.16907174 </i>
    <i name="e_0_energy">   -776.16907174 </i>
   </energy>
  </scstep>
  <scstep>
   <time name="dav">  371.71  375.83</time>
   <time name="total">  371.71  375.83</time>
   <energy>
    <i name="alphaZ">     38.89292646 </i>
    <i name="ewald">  41415.25154127 </i>
    <i name="hartreedc"> -51029.78662786 </i>
    <i name="XCdc">   1127.18950228 </i>
    <i name="pawpsdc">  30131.98352743 </i>
    <i name="pawaedc"> -30186.76623614 </i>
    <i name="eentropy">     -0.00000000 </i>
    <i name="bandstr">  -4036.84469990 </i>
    <i name="atom">  11763.91099425 </i>
    <i name="e_fr_energy">   -776.16907220 </i>
    <i name="e_wo_entrp">   -776.16907220 </i>
    <i name="e_0_energy">   -776.16907220 </i>
   </energy>
  </scstep>
  <structure>
   <crystal>
    <varray name="basis" >
     <v>      25.63045014       0.01337854       0.00000000 </v>
     <v>      -0.00324492      25.62266418       0.00000000 </v>
     <v>       0.00000000       0.00000000      20.00000000 </v>
    </varray>
    <i name="volume">  13134.40920551 </i>
    <varray name="rec_basis" >
     <v>       0.03901609       0.00000494       0.00000000 </v>
     <v>      -0.00002037       0.03902795       0.00000000 </v>
     <v>       0.00000000       0.00000000       0.05000000 </v>
    </varray>
   </crystal>
   <varray name="positions" >
    <v>       0.99699807       0.38108089       0.47870421 </v>
    <v>       0.60113232       0.99482427       0.47532151 </v>
    <v>       0.04746223       0.05145311       0.50377369 </v>
    <v>       0.93308134       0.04387110       0.50193642 </v>
    <v>       0.93663163       0.92938027       0.50134972 </v>
    <v>       0.05102008       0.93689701       0.50351466 </v>
    <v>       0.98886388       0.60012082       0.47296516 </v>
    <v>       0.38210511       0.98611385       0.47330430 </v>
    <v>       0.21586354       0.97993094       0.45562366 </v>
    <v>       0.26996079       0.98218495       0.45791486 </v>
    <v>       0.98321968       0.76632229       0.45317923 </v>
    <v>       0.98552882       0.71221925       0.45597122 </v>
    <v>       0.71344270       0.99841170       0.45619975 </v>
    <v>       0.76752632       0.00115374       0.45311730 </v>
    <v>       0.00270755       0.21493334       0.45627746 </v>
    <v>       0.00037741       0.26902865       0.45966557 </v>
    <v>       0.99454850       0.43539548       0.48338145 </v>
    <v>       0.98949300       0.46239554       0.42225121 </v>
    <v>       0.98633702       0.51632073       0.41988888 </v>
    <v>       0.54688031       0.99236001       0.48093316 </v>
    <v>       0.51926775       0.98710621       0.42029292 </v>
    <v>       0.46534961       0.98381266       0.41884138 </v>
    <v>       0.08394819       0.13147753       0.50749725 </v>
    <v>       0.12360492       0.09544369       0.50728075 </v>
    <v>       0.10069654       0.04436550       0.50584791 </v>
    <v>       0.03533319       0.10379841       0.50471279 </v>
    <v>       0.98493291       0.12563856       0.50450871 </v>
    <v>       0.93768776       0.09718909       0.50291830 </v>
    <v>       0.88044514       0.03421807       0.50184394 </v>
    <v>       0.85082266       0.08283256       0.50261424 </v>
    <v>       0.88647605       0.12206196       0.50219658 </v>
    <v>       0.85673766       0.98441909       0.50251019 </v>
    <v>       0.88338202       0.93638207       0.50194129 </v>
    <v>       0.94880411       0.87703448       0.50196588 </v>
    <v>       0.90020546       0.84927827       0.50246850 </v>
    <v>       0.86051804       0.88527184       0.50160632 </v>
    <v>       0.99916401       0.85519735       0.50352804 </v>
    <v>       0.04641981       0.88359547       0.50397608 </v>
    <v>       0.10361783       0.94652804       0.50479844 </v>
    <v>       0.13325399       0.89790853       0.50613675 </v>
    <v>       0.09761408       0.85868223       0.50468227 </v>
    <v>       0.12729164       0.99631829       0.50623082 </v>
    <v>       0.18532098       0.99892316       0.50892314 </v>
    <v>       0.29546063       0.00420618       0.51354357 </v>
    <v>       0.26508313       0.02347808       0.56660773 </v>
    <v>       0.21084210       0.02052161       0.56457186 </v>
    <v>       0.00209961       0.79717575       0.50623406 </v>
    <v>       0.00743128       0.68704466       0.51192181 </v>
    <v>       0.02672038       0.71774488       0.56466858 </v>
    <v>       0.02371607       0.77197356       0.56213322 </v>
    <v>       0.79872031       0.98153224       0.50541392 </v>
    <v>       0.77384008       0.95863955       0.56072319 </v>
    <v>       0.71966495       0.95502873       0.56339805 </v>
    <v>       0.68865506       0.97510300       0.51145556 </v>
    <v>       0.98193300       0.18365625       0.50775689 </v>
    <v>       0.95834373       0.20848613       0.56262731 </v>
    <v>       0.97643528       0.29376963       0.51451830 </v>
    <v>       0.95518251       0.26270246       0.56560550 </v>
    <v>       0.01085201       0.63023516       0.51608321 </v>
    <v>       0.63181817       0.97116685       0.51616190 </v>
    <v>       0.97283936       0.35064817       0.51932544 </v>
    <v>       0.35227178       0.00784387       0.51697413 </v>
    <v>       0.99122111       0.54577930       0.47894059 </v>
    <v>       0.99762385       0.51886482       0.53978815 </v>
    <v>       0.99930838       0.46446023       0.54376646 </v>
    <v>       0.00823810       0.43935941       0.61113384 </v>
    <v>       0.43647876       0.98871520       0.47837277 </v>
    <v>       0.46399835       0.99538221       0.53872863 </v>
    <v>       0.51842408       0.99726423       0.54181399 </v>
    <v>       0.54404971       0.00656677       0.60878205 </v>
    <v>       0.01636267       0.29321658       0.41976836 </v>
    <v>       0.02038228       0.19603866       0.41294853 </v>
    <v>       0.78649269       0.01834160       0.40952880 </v>
    <v>       0.68929954       0.01359993       0.41573864 </v>
    <v>       0.96702606       0.78558049       0.40915917 </v>
    <v>       0.97108089       0.68831111       0.41485847 </v>
    <v>       0.29361304       0.96756800       0.41663963 </v>
    <v>       0.19631862       0.96354779       0.41194143 </v>
    <v>       0.98725511       0.43922035       0.37659653 </v>
    <v>       0.98131347       0.53689323       0.37259618 </v>
    <v>       0.54200326       0.98483227       0.37429062 </v>
    <v>       0.44431337       0.97861183       0.37192176 </v>
    <v>       0.93646892       0.28143102       0.60843297 </v>
    <v>       0.94248395       0.18475741       0.60307453 </v>
    <v>       0.08765145       0.17359090       0.50948161 </v>
    <v>       0.16518723       0.10314450       0.50816265 </v>
    <v>       0.02069754       0.02198360       0.50270070 </v>
    <v>       0.96336979       0.95889408       0.50171800 </v>
    <v>       0.87893215       0.16372509       0.50141512 </v>
    <v>       0.80864408       0.08638935       0.50334561 </v>
    <v>       0.79750753       0.94376957       0.60186665 </v>
    <v>       0.70092138       0.93695638       0.60665889 </v>
    <v>       0.81895366       0.87749777       0.50077943 </v>
    <v>       0.89656317       0.80713432       0.50333073 </v>
    <v>       0.17541876       0.89437319       0.50796593 </v>
    <v>       0.10511190       0.81700344       0.50406965 </v>
    <v>       0.03808927       0.79540524       0.60377066 </v>
    <v>       0.04377411       0.69869527       0.60840133 </v>
    <v>       0.18768435       0.03480654       0.60652577 </v>
    <v>       0.28440562       0.04046002       0.61016949 </v>
    <v>       0.03416445       0.61486938       0.55833331 </v>
    <v>       0.61706269       0.94562737       0.55645524 </v>
    <v>       0.94702493       0.36559370       0.55920789 </v>
    <v>       0.36787775       0.03113877       0.55910144 </v>
    <v>       0.00066323       0.54109055       0.58625617 </v>
    <v>       0.02933908       0.46628186       0.64419954 </v>
    <v>       0.97143599       0.42927595       0.63637887 </v>
    <v>       0.03117076       0.40326002       0.60702886 </v>
    <v>       0.44224374       0.99845601       0.58556032 </v>
    <v>       0.51742034       0.02796627       0.64196655 </v>
    <v>       0.55425811       0.96990241       0.63432787 </v>
    <v>       0.58015561       0.02938227       0.60405004 </v>
   </varray>
  </structure>
  <varray name="forces" >
   <v>      -0.00479636       0.01575864      -0.01037005 </v>
   <v>      -0.03144041      -0.00576801      -0.01770256 </v>
   <v>      -0.00074763       0.00482734      -0.00035073 </v>
   <v>      -0.00560449       0.00011956      -0.00227462 </v>
   <v>       0.00038164       0.00109046       0.00222339 </v>
   <v>      -0.00076690      -0.00114755      -0.00060221 </v>
   <v>       0.00105151      -0.01065195      -0.00923102 </v>
   <v>       0.02704345       0.00555837      -0.01216162 </v>
   <v>       0.01441885      -0.01598131      -0.00355926 </v>
   <v>      -0.01932131      -0.00634165      -0.00976711 </v>
   <v>      -0.00811028      -0.00577120      -0.00151113 </v>
   <v>      -0.00000055       0.00776930      -0.00210836 </v>
   <v>       0.01169847       0.00245582      -0.00385178 </v>
   <v>      -0.01421395       0.01489405      -0.00282665 </v>
   <v>       0.00552550       0.00741818       0.00074017 </v>
   <v>       0.00096462      -0.00309696       0.00240494 </v>
   <v>       0.00538796      -0.01519255      -0.00128782 </v>
   <v>       0.00216989       0.00201237      -0.01339470 </v>
   <v>      -0.00189454      -0.00750707      -0.00846043 </v>
   <v>       0.02993530       0.00148882      -0.00091256 </v>
   <v>      -0.01194763       0.00336874      -0.01281983 </v>
   <v>       0.01076814      -0.00616168      -0.01234667 </v>
   <v>      -0.00968806      -0.00199798       0.00464993 </v>
   <v>       0.00131716      -0.01248654      -0.00175524 </v>
   <v>      -0.00396082       0.02138799       0.01393644 </v>
   <v>       0.01227875       0.00290128      -0.00453210 </v>
   <v>      -0.01013928       0.00521528       0.00248454 </v>
   <v>      -0.00226342       0.00109197       0.00639922 </v>
   <v>       0.00665496       0.01023871      -0.01301382 </v>
   <v>       0.00076236      -0.00809110       0.00187138 </v>
   <v>       0.00553216       0.00097707       0.00153324 </v>
   <v>      -0.02387959       0.00342956      -0.00027050 </v>
   <v>       0.00542200      -0.01488075       0.00589517 </v>
   <v>      -0.01468610      -0.00015737      -0.00916319 </v>
   <v>       0.00575247      -0.00088792       0.00122742 </v>
   <v>       0.00248214       0.00597188       0.00252631 </v>
   <v>       0.01103571      -0.00887599      -0.00019697 </v>
   <v>      -0.00123394      -0.00704347       0.00770999 </v>
   <v>      -0.00231228      -0.00799702      -0.01342978 </v>
   <v>       0.00114428       0.00675506       0.00053863 </v>
   <v>      -0.00481220       0.00162637      -0.00012018 </v>
   <v>       0.03216953      -0.00477767       0.00281733 </v>
   <v>      -0.02324369      -0.00381000       0.00191728 </v>
   <v>       0.03199450       0.00263422       0.00080927 </v>
   <v>      -0.01845283       0.00450171       0.00596592 </v>
   <v>       0.01418634       0.01821156       0.00353263 </v>
   <v>      -0.00097765       0.01475279       0.00070273 </v>
   <v>       0.00223797      -0.02070349      -0.00080967 </v>
   <v>       0.00529622       0.00513625       0.00538309 </v>
   <v>       0.00890612      -0.00720102       0.00388751 </v>
   <v>       0.02070915      -0.00040238       0.00422700 </v>
   <v>      -0.01493289      -0.01588201       0.00206140 </v>
   <v>       0.01380327      -0.00652034       0.00493019 </v>
   <v>      -0.02624983      -0.00263118       0.00007384 </v>
   <v>       0.00102654      -0.01344772       0.00177545 </v>
   <v>      -0.00955643       0.00843971       0.00196644 </v>
   <v>      -0.00318818       0.01771954      -0.00215582 </v>
   <v>      -0.00150130      -0.00834756       0.00391884 </v>
   <v>       0.00611054       0.01670483       0.00647199 </v>
   <v>       0.02949511      -0.00640809       0.02246617 </v>
   <v>      -0.00230232      -0.01726866       0.00702623 </v>
   <v>      -0.02477277       0.00306362       0.01153476 </v>
   <v>       0.00485173       0.02083057       0.00045129 </v>
   <v>       0.00215862      -0.00295280       0.01111296 </v>
   <v>      -0.00171433       0.00085747       0.01016013 </v>
   <v>      -0.00212730      -0.00202826      -0.00638474 </v>
   <v>      -0.03101489      -0.00019036       0.00238566 </v>
   <v>       0.01198778       0.00130539       0.01292728 </v>
   <v>      -0.01417742      -0.00481707       0.00660526 </v>
   <v>       0.00367500       0.00119804      -0.00090762 </v>
   <v>       0.00120802       0.00238790      -0.00357618 </v>
   <v>       0.00112279      -0.00279365      -0.00235317 </v>
   <v>      -0.00060536       0.00021898       0.00146394 </v>
   <v>      -0.00034276      -0.00159368      -0.00309643 </v>
   <v>       0.00146470      -0.00064525      -0.00301676 </v>
   <v>      -0.00103394      -0.00210022      -0.00266643 </v>
   <v>       0.00050769       0.00343644       0.00197078 </v>
   <v>       0.00323549       0.00220522      -0.00108244 </v>
   <v>       0.00300234       0.00241436       0.00485578 </v>
   <v>      -0.00076791       0.00170613       0.00101450 </v>
   <v>      -0.00408501      -0.00051807      -0.00209267 </v>
   <v>      -0.00016275      -0.00083124       0.00105947 </v>
   <v>       0.00156206       0.00188963       0.00292181 </v>
   <v>      -0.00087204       0.00046419       0.00254979 </v>
   <v>      -0.00008228       0.00007515      -0.00046782 </v>
   <v>      -0.00411126      -0.00271181      -0.00291573 </v>
   <v>      -0.00295659      -0.00449175       0.00228595 </v>
   <v>      -0.00316242      -0.00100380       0.00460240 </v>
   <v>      -0.00077157       0.00461641       0.00157219 </v>
   <v>      -0.00260328      -0.00052761       0.00109379 </v>
   <v>      -0.00379286      -0.00068582      -0.00015166 </v>
   <v>      -0.00140379       0.00121586      -0.00180490 </v>
   <v>       0.00144647      -0.00029242       0.00142581 </v>
   <v>      -0.00036285       0.00020036       0.00365984 </v>
   <v>       0.00013131       0.00159696       0.00071624 </v>
   <v>       0.00048491      -0.00252924      -0.00196873 </v>
   <v>       0.00249831       0.00029006      -0.00123739 </v>
   <v>      -0.00223530      -0.00033126      -0.00080535 </v>
   <v>       0.00106253       0.00311636       0.00129813 </v>
   <v>       0.00024697      -0.00108325       0.00165866 </v>
   <v>       0.00337437      -0.00038007       0.00113342 </v>
   <v>       0.00465214       0.00832206      -0.00303126 </v>
   <v>       0.00233545       0.00106402      -0.00046224 </v>
   <v>      -0.00471662      -0.00202428      -0.00144514 </v>
   <v>      -0.00056662      -0.00177142      -0.00183285 </v>
   <v>       0.00491906       0.00323494       0.00279761 </v>
   <v>       0.00072090      -0.00035401       0.00128331 </v>
   <v>      -0.00203677       0.00064024       0.00007546 </v>
   <v>       0.00400222       0.00228105      -0.00301099 </v>
   <v>       0.00022352       0.00006379      -0.00571238 </v>
   <v>      -0.00124968       0.00224684      -0.00227280 </v>
   <v>      -0.00458371      -0.00130392      -0.00540820 </v>
  </varray>
  <varray name="stress" >
   <v>      -0.03642208      -0.00536059      -0.00099979 </v>
   <v>      -0.00536059       0.00033481       0.00263527 </v>
   <v>      -0.00099979       0.00263527      -0.14491601 </v>
  </varray>
  <energy>
   <i name="e_fr_energy">   -778.50115062 </i>
   <i name="e_wo_entrp">   -778.50115062 </i>
   <i name="e_0_energy">     -0.00000000 </i>
  </energy>
  <time name="totalsc"> 3272.37 3310.37</time>
  <eigenvalues>
   <array>
    <dimension dim="1">band</dimension>
    <dimension dim="2">kpoint</dimension>
    <dimension dim="3">spin</dimension>
    <field>eigene</field>
    <field>occ</field>
    <set>
     <set comment="spin 1">
      <set comment="kpoint 1">
       <r>  -24.4512    1.0000 </r>
       <r>  -24.4163    1.0000 </r>
       <r>  -23.1971    1.0000 </r>
       <r>  -23.1294    1.0000 </r>
       <r>  -23.0850    1.0000 </r>
       <r>  -23.0823    1.0000 </r>
       <r>  -22.9146    1.0000 </r>
       <r>  -22.9112    1.0000 </r>
       <r>  -21.4506    1.0000 </r>
       <r>  -21.3591    1.0000 </r>
       <r>  -21.3310    1.0000 </r>
       <r>  -21.3013    1.0000 </r>
       <r>  -20.6667    1.0000 </r>
       <r>  -20.5768    1.0000 </r>
       <r>  -20.1907    1.0000 </r>
       <r>  -19.9967    1.0000 </r>
       <r>  -19.9170    1.0000 </r>
       <r>  -19.5804    1.0000 </r>
       <r>  -19.3142    1.0000 </r>
       <r>  -19.1683    1.0000 </r>
       <r>  -18.8626    1.0000 </r>
       <r>  -18.8321    1.0000 </r>
       <r>  -18.7083    1.0000 </r>
       <r>  -18.5716    1.0000 </r>
       <r>  -18.4434    1.0000 </r>
       <r>  -18.4005    1.0000 </r>
       <r>  -18.3741    1.0000 </r>
       <r>  -18.3651    1.0000 </r>
       <r>  -18.3177    1.0000 </r>
       <r>  -18.3001    1.0000 </r>
       <r>  -18.2602    1.0000 </r>
       <r>  -17.7098    1.0000 </r>
       <r>  -17.6024    1.0000 </r>
       <r>  -17.5520    1.0000 </r>
       <r>  -17.5186    1.0000 </r>
       <r>  -16.7404    1.0000 </r>
       <r>  -16.7358    1.0000 </r>
       <r>  -16.2635    1.0000 </r>
       <r>  -16.2429    1.0000 </r>
       <r>  -16.1006    1.0000 </r>
       <r>  -15.8657    1.0000 </r>
       <r>  -15.2177    1.0000 </r>
       <r>  -15.2024    1.0000 </r>
       <r>  -15.0163    1.0000 </r>
       <r>  -14.9382    1.0000 </r>
       <r>  -14.7915    1.0000 </r>
       <r>  -14.7685    1.0000 </r>
       <r>  -14.7332    1.0000 </r>
       <r>  -14.5541    1.0000 </r>
       <r>  -14.4833    1.0000 </r>
       <r>  -14.4075    1.0000 </r>
       <r>  -14.3633    1.0000 </r>
       <r>  -14.3215    1.0000 </r>
       <r>  -14.2058    1.0000 </r>
       <r>  -13.9512    1.0000 </r>
       <r>  -13.9402    1.0000 </r>
       <r>  -13.6459    1.0000 </r>
       <r>  -13.6031    1.0000 </r>
       <r>  -13.5500    1.0000 </r>
       <r>  -13.2724    1.0000 </r>
       <r>  -13.2605    1.0000 </r>
       <r>  -13.2495    1.0000 </r>
       <r>  -13.0940    1.0000 </r>
       <r>  -12.6016    1.0000 </r>
       <r>  -12.4863    1.0000 </r>
       <r>  -12.4255    1.0000 </r>
       <r>  -12.3741    1.0000 </r>
       <r>  -12.3042    1.0000 </r>
       <r>  -12.1203    1.0000 </r>
       <r>  -12.0890    1.0000 </r>
       <r>  -12.0563    1.0000 </r>
       <r>  -12.0379    1.0000 </r>
       <r>  -11.9697    1.0000 </r>
       <r>  -11.6959    1.0000 </r>
       <r>  -11.4667    1.0000 </r>
       <r>  -11.4553    1.0000 </r>
       <r>  -11.1493    1.0000 </r>
       <r>  -11.0760    1.0000 </r>
       <r>  -10.8918    1.0000 </r>
       <r>  -10.8529    1.0000 </r>
       <r>  -10.8065    1.0000 </r>
       <r>  -10.7607    1.0000 </r>
       <r>  -10.7229    1.0000 </r>
       <r>  -10.6369    1.0000 </r>
       <r>  -10.6100    1.0000 </r>
       <r>  -10.5992    1.0000 </r>
       <r>  -10.5677    1.0000 </r>
       <r>  -10.4440    1.0000 </r>
       <r>  -10.2904    1.0000 </r>
       <r>  -10.2537    1.0000 </r>
       <r>  -10.2168    1.0000 </r>
       <r>  -10.2014    1.0000 </r>
       <r>  -10.1760    1.0000 </r>
       <r>  -10.1218    1.0000 </r>
       <r>  -10.0466    1.0000 </r>
       <r>  -10.0351    1.0000 </r>
       <r>  -10.0197    1.0000 </r>
       <r>   -9.9779    1.0000 </r>
       <r>   -9.9592    1.0000 </r>
       <r>   -9.9291    1.0000 </r>
       <r>   -9.8990    1.0000 </r>
       <r>   -9.8818    1.0000 </r>
       <r>   -9.8130    1.0000 </r>
       <r>   -9.6251    1.0000 </r>
       <r>   -9.6107    1.0000 </r>
       <r>   -9.5874    1.0000 </r>
       <r>   -9.5163    1.0000 </r>
       <r>   -9.4904    1.0000 </r>
       <r>   -9.4348    1.0000 </r>
       <r>   -9.3804    1.0000 </r>
       <r>   -9.3298    1.0000 </r>
       <r>   -9.3215    1.0000 </r>
       <r>   -9.2845    1.0000 </r>
       <r>   -9.2346    1.0000 </r>
       <r>   -9.1611    1.0000 </r>
       <r>   -9.0904    1.0000 </r>
       <r>   -8.8905    1.0000 </r>
       <r>   -8.8685    1.0000 </r>
       <r>   -8.8362    1.0000 </r>
       <r>   -8.8192    1.0000 </r>
       <r>   -8.7482    1.0000 </r>
       <r>   -8.7102    1.0000 </r>
       <r>   -8.6702    1.0000 </r>
       <r>   -8.4809    1.0000 </r>
       <r>   -8.4199    1.0000 </r>
       <r>   -8.3537    1.0000 </r>
       <r>   -8.3185    1.0000 </r>
       <r>   -8.2776    1.0000 </r>
       <r>   -8.1100    1.0000 </r>
       <r>   -8.0837    1.0000 </r>
       <r>   -8.0520    1.0000 </r>
       <r>   -8.0269    1.0000 </r>
       <r>   -8.0077    1.0000 </r>
       <r>   -7.9982    1.0000 </r>
       <r>   -7.9416    1.0000 </r>
       <r>   -7.9260    1.0000 </r>
       <r>   -7.5991    1.0000 </r>
       <r>   -7.5362    1.0000 </r>
       <r>   -7.5238    1.0000 </r>
       <r>   -6.8532    1.0000 </r>
       <r>   -6.7175    1.0000 </r>
       <r>   -6.6931    1.0000 </r>
       <r>   -6.6608    1.0000 </r>
       <r>   -6.3423    1.0000 </r>
       <r>   -6.3101    1.0000 </r>
       <r>   -6.2604    1.0000 </r>
       <r>   -6.2436    1.0000 </r>
       <r>   -6.2027    1.0000 </r>
       <r>   -6.1722    1.0000 </r>
       <r>   -6.0097    1.0000 </r>
       <r>   -5.9974    1.0000 </r>
       <r>   -5.8946    1.0000 </r>
       <r>   -5.8429    1.0000 </r>
       <r>   -5.8359    1.0000 </r>
       <r>   -5.8140    1.0000 </r>
       <r>   -5.8099    1.0000 </r>
       <r>   -5.7803    1.0000 </r>
       <r>   -5.6498    1.0000 </r>
       <r>   -5.6342    1.0000 </r>
       <r>   -5.5920    1.0000 </r>
       <r>   -5.5083    1.0000 </r>
       <r>   -4.9400    1.0000 </r>
       <r>   -4.8337    1.0000 </r>
       <r>   -4.7020    1.0000 </r>
       <r>   -4.4477    1.0000 </r>
       <r>   -2.9218    0.0000 </r>
       <r>   -2.8937    0.0000 </r>
       <r>   -2.4426    0.0000 </r>
       <r>   -2.4065    0.0000 </r>
       <r>   -2.1064    0.0000 </r>
       <r>   -1.9904    0.0000 </r>
       <r>   -1.4595    0.0000 </r>
       <r>   -1.1355    0.0000 </r>
       <r>   -1.1329    0.0000 </r>
       <r>   -1.0779    0.0000 </r>
       <r>   -1.0752    0.0000 </r>
       <r>   -0.8504    0.0000 </r>
       <r>   -0.8469    0.0000 </r>
       <r>   -0.5438    0.0000 </r>
       <r>   -0.5412    0.0000 </r>
       <r>   -0.2929    0.0000 </r>
       <r>   -0.2127    0.0000 </r>
       <r>   -0.1327    0.0000 </r>
       <r>   -0.0935    0.0000 </r>
       <r>   -0.0627    0.0000 </r>
       <r>   -0.0241    0.0000 </r>
       <r>   -0.0042    0.0000 </r>
       <r>    0.1682    0.0000 </r>
       <r>    0.2137    0.0000 </r>
       <r>    0.2262    0.0000 </r>
       <r>    0.2455    0.0000 </r>
       <r>    0.2743    0.0000 </r>
       <r>    0.3562    0.0000 </r>
       <r>    0.4240    0.0000 </r>
       <r>    0.4357    0.0000 </r>
       <r>    0.4541    0.0000 </r>
       <r>    0.5154    0.0000 </r>
       <r>    0.5171    0.0000 </r>
       <r>    0.5223    0.0000 </r>
       <r>    0.5576    0.0000 </r>
       <r>    0.5857    0.0000 </r>
       <r>    0.6055    0.0000 </r>
       <r>    0.6247    0.0000 </r>
       <r>    0.6572    0.0000 </r>
       <r>    0.6638    0.0000 </r>
       <r>    0.7124    0.0000 </r>
       <r>    0.7292    0.0000 </r>
       <r>    0.7613    0.0000 </r>
       <r>    0.7770    0.0000 </r>
       <r>    0.8068    0.0000 </r>
       <r>    0.8151    0.0000 </r>
       <r>    0.8535    0.0000 </r>
       <r>    0.8631    0.0000 </r>
       <r>    0.9049    0.0000 </r>
       <r>    0.9227    0.0000 </r>
       <r>    0.9458    0.0000 </r>
       <r>    0.9739    0.0000 </r>
       <r>    0.9961    0.0000 </r>
       <r>    1.0077    0.0000 </r>
       <r>    1.0219    0.0000 </r>
       <r>    1.0498    0.0000 </r>
       <r>    1.0648    0.0000 </r>
       <r>    1.0760    0.0000 </r>
       <r>    1.0803    0.0000 </r>
      </set>
      <set comment="kpoint 2">
       <r>  -24.4512    1.0000 </r>
       <r>  -24.4163    1.0000 </r>
       <r>  -23.1971    1.0000 </r>
       <r>  -23.1294    1.0000 </r>
       <r>  -23.0850    1.0000 </r>
       <r>  -23.0823    1.0000 </r>
       <r>  -22.9146    1.0000 </r>
       <r>  -22.9112    1.0000 </r>
       <r>  -21.4506    1.0000 </r>
       <r>  -21.3591    1.0000 </r>
       <r>  -21.3310    1.0000 </r>
       <r>  -21.3013    1.0000 </r>
       <r>  -20.6665    1.0000 </r>
       <r>  -20.5768    1.0000 </r>
       <r>  -20.1913    1.0000 </r>
       <r>  -19.9963    1.0000 </r>
       <r>  -19.9166    1.0000 </r>
       <r>  -19.5806    1.0000 </r>
       <r>  -19.3142    1.0000 </r>
       <r>  -19.1686    1.0000 </r>
       <r>  -18.8625    1.0000 </r>
       <r>  -18.8321    1.0000 </r>
       <r>  -18.7082    1.0000 </r>
       <r>  -18.5720    1.0000 </r>
       <r>  -18.4433    1.0000 </r>
       <r>  -18.4006    1.0000 </r>
       <r>  -18.3743    1.0000 </r>
       <r>  -18.3643    1.0000 </r>
       <r>  -18.3176    1.0000 </r>
       <r>  -18.3000    1.0000 </r>
       <r>  -18.2602    1.0000 </r>
       <r>  -17.7134    1.0000 </r>
       <r>  -17.6002    1.0000 </r>
       <r>  -17.5521    1.0000 </r>
       <r>  -17.5174    1.0000 </r>
       <r>  -16.7404    1.0000 </r>
       <r>  -16.7358    1.0000 </r>
       <r>  -16.2703    1.0000 </r>
       <r>  -16.2372    1.0000 </r>
       <r>  -16.1004    1.0000 </r>
       <r>  -15.8648    1.0000 </r>
       <r>  -15.2179    1.0000 </r>
       <r>  -15.2031    1.0000 </r>
       <r>  -15.0159    1.0000 </r>
       <r>  -14.9382    1.0000 </r>
       <r>  -14.7934    1.0000 </r>
       <r>  -14.7685    1.0000 </r>
       <r>  -14.7309    1.0000 </r>
       <r>  -14.5541    1.0000 </r>
       <r>  -14.4834    1.0000 </r>
       <r>  -14.4074    1.0000 </r>
       <r>  -14.3633    1.0000 </r>
       <r>  -14.3215    1.0000 </r>
       <r>  -14.2062    1.0000 </r>
       <r>  -13.9510    1.0000 </r>
       <r>  -13.9400    1.0000 </r>
       <r>  -13.6462    1.0000 </r>
       <r>  -13.6035    1.0000 </r>
       <r>  -13.5496    1.0000 </r>
       <r>  -13.2725    1.0000 </r>
       <r>  -13.2607    1.0000 </r>
       <r>  -13.2494    1.0000 </r>
       <r>  -13.0940    1.0000 </r>
       <r>  -12.6018    1.0000 </r>
       <r>  -12.4860    1.0000 </r>
       <r>  -12.4254    1.0000 </r>
       <r>  -12.3742    1.0000 </r>
       <r>  -12.3041    1.0000 </r>
       <r>  -12.1203    1.0000 </r>
       <r>  -12.0892    1.0000 </r>
       <r>  -12.0559    1.0000 </r>
       <r>  -12.0380    1.0000 </r>
       <r>  -11.9693    1.0000 </r>
       <r>  -11.6965    1.0000 </r>
       <r>  -11.4736    1.0000 </r>
       <r>  -11.4481    1.0000 </r>
       <r>  -11.1492    1.0000 </r>
       <r>  -11.0759    1.0000 </r>
       <r>  -10.8921    1.0000 </r>
       <r>  -10.8528    1.0000 </r>
       <r>  -10.8067    1.0000 </r>
       <r>  -10.7606    1.0000 </r>
       <r>  -10.7229    1.0000 </r>
       <r>  -10.6369    1.0000 </r>
       <r>  -10.6101    1.0000 </r>
       <r>  -10.5992    1.0000 </r>
       <r>  -10.5678    1.0000 </r>
       <r>  -10.4440    1.0000 </r>
       <r>  -10.2903    1.0000 </r>
       <r>  -10.2537    1.0000 </r>
       <r>  -10.2169    1.0000 </r>
       <r>  -10.2013    1.0000 </r>
       <r>  -10.1759    1.0000 </r>
       <r>  -10.1218    1.0000 </r>
       <r>  -10.0466    1.0000 </r>
       <r>  -10.0351    1.0000 </r>
       <r>  -10.0197    1.0000 </r>
       <r>   -9.9779    1.0000 </r>
       <r>   -9.9592    1.0000 </r>
       <r>   -9.9295    1.0000 </r>
       <r>   -9.8989    1.0000 </r>
       <r>   -9.8816    1.0000 </r>
       <r>   -9.8127    1.0000 </r>
       <r>   -9.6253    1.0000 </r>
       <r>   -9.6107    1.0000 </r>
       <r>   -9.5875    1.0000 </r>
       <r>   -9.5163    1.0000 </r>
       <r>   -9.4904    1.0000 </r>
       <r>   -9.4348    1.0000 </r>
       <r>   -9.3804    1.0000 </r>
       <r>   -9.3307    1.0000 </r>
       <r>   -9.3206    1.0000 </r>
       <r>   -9.2843    1.0000 </r>
       <r>   -9.2344    1.0000 </r>
       <r>   -9.1610    1.0000 </r>
       <r>   -9.0904    1.0000 </r>
       <r>   -8.8914    1.0000 </r>
       <r>   -8.8684    1.0000 </r>
       <r>   -8.8366    1.0000 </r>
       <r>   -8.8184    1.0000 </r>
       <r>   -8.7482    1.0000 </r>
       <r>   -8.7103    1.0000 </r>
       <r>   -8.6696    1.0000 </r>
       <r>   -8.4809    1.0000 </r>
       <r>   -8.4204    1.0000 </r>
       <r>   -8.3541    1.0000 </r>
       <r>   -8.3184    1.0000 </r>
       <r>   -8.2769    1.0000 </r>
       <r>   -8.1103    1.0000 </r>
       <r>   -8.0836    1.0000 </r>
       <r>   -8.0520    1.0000 </r>
       <r>   -8.0271    1.0000 </r>
       <r>   -8.0080    1.0000 </r>
       <r>   -7.9979    1.0000 </r>
       <r>   -7.9418    1.0000 </r>
       <r>   -7.9258    1.0000 </r>
       <r>   -7.5999    1.0000 </r>
       <r>   -7.5361    1.0000 </r>
       <r>   -7.5227    1.0000 </r>
       <r>   -6.8539    1.0000 </r>
       <r>   -6.7192    1.0000 </r>
       <r>   -6.6931    1.0000 </r>
       <r>   -6.6584    1.0000 </r>
       <r>   -6.3423    1.0000 </r>
       <r>   -6.3100    1.0000 </r>
       <r>   -6.2604    1.0000 </r>
       <r>   -6.2436    1.0000 </r>
       <r>   -6.2027    1.0000 </r>
       <r>   -6.1722    1.0000 </r>
       <r>   -6.0097    1.0000 </r>
       <r>   -5.9974    1.0000 </r>
       <r>   -5.8951    1.0000 </r>
       <r>   -5.8448    1.0000 </r>
       <r>   -5.8341    1.0000 </r>
       <r>   -5.8139    1.0000 </r>
       <r>   -5.8098    1.0000 </r>
       <r>   -5.7801    1.0000 </r>
       <r>   -5.6498    1.0000 </r>
       <r>   -5.6342    1.0000 </r>
       <r>   -5.5920    1.0000 </r>
       <r>   -5.5083    1.0000 </r>
       <r>   -4.9400    1.0000 </r>
       <r>   -4.8334    1.0000 </r>
       <r>   -4.7020    1.0000 </r>
       <r>   -4.4480    1.0000 </r>
       <r>   -2.9216    0.0000 </r>
       <r>   -2.8935    0.0000 </r>
       <r>   -2.4430    0.0000 </r>
       <r>   -2.4069    0.0000 </r>
       <r>   -2.1059    0.0000 </r>
       <r>   -1.9903    0.0000 </r>
       <r>   -1.4596    0.0000 </r>
       <r>   -1.1356    0.0000 </r>
       <r>   -1.1329    0.0000 </r>
       <r>   -1.0778    0.0000 </r>
       <r>   -1.0752    0.0000 </r>
       <r>   -0.8504    0.0000 </r>
       <r>   -0.8469    0.0000 </r>
       <r>   -0.5439    0.0000 </r>
       <r>   -0.5412    0.0000 </r>
       <r>   -0.2928    0.0000 </r>
       <r>   -0.2128    0.0000 </r>
       <r>   -0.1328    0.0000 </r>
       <r>   -0.0937    0.0000 </r>
       <r>   -0.0626    0.0000 </r>
       <r>   -0.0244    0.0000 </r>
       <r>   -0.0033    0.0000 </r>
       <r>    0.1682    0.0000 </r>
       <r>    0.2136    0.0000 </r>
       <r>    0.2260    0.0000 </r>
       <r>    0.2453    0.0000 </r>
       <r>    0.2740    0.0000 </r>
       <r>    0.3567    0.0000 </r>
       <r>    0.4239    0.0000 </r>
       <r>    0.4351    0.0000 </r>
       <r>    0.4551    0.0000 </r>
       <r>    0.5155    0.0000 </r>
       <r>    0.5170    0.0000 </r>
       <r>    0.5223    0.0000 </r>
       <r>    0.5565    0.0000 </r>
       <r>    0.5854    0.0000 </r>
       <r>    0.6054    0.0000 </r>
       <r>    0.6254    0.0000 </r>
       <r>    0.6566    0.0000 </r>
       <r>    0.6641    0.0000 </r>
       <r>    0.7139    0.0000 </r>
       <r>    0.7290    0.0000 </r>
       <r>    0.7610    0.0000 </r>
       <r>    0.7767    0.0000 </r>
       <r>    0.8066    0.0000 </r>
       <r>    0.8156    0.0000 </r>
       <r>    0.8535    0.0000 </r>
       <r>    0.8634    0.0000 </r>
       <r>    0.9044    0.0000 </r>
       <r>    0.9231    0.0000 </r>
       <r>    0.9450    0.0000 </r>
       <r>    0.9736    0.0000 </r>
       <r>    0.9965    0.0000 </r>
       <r>    1.0075    0.0000 </r>
       <r>    1.0193    0.0000 </r>
       <r>    1.0521    0.0000 </r>
       <r>    1.0637    0.0000 </r>
       <r>    1.0758    0.0000 </r>
       <r>    1.0790    0.0000 </r>
      </set>
      <set comment="kpoint 3">
       <r>  -24.4512    1.0000 </r>
       <r>  -24.4163    1.0000 </r>
[...]
       <r>   -20.8503     0.0000    24.0000 </r>
       <r>   -20.7564     0.0000    24.0000 </r>
       <r>   -20.6625     2.9158    24.2737 </r>
       <r>   -20.5687    35.3464    27.9520 </r>
       <r>   -20.4748     0.0000    28.0000 </r>
       <r>   -20.3810     0.0000    28.0000 </r>
       <r>   -20.2871     6.7869    28.6370 </r>
       <r>   -20.1932    11.6662    29.8622 </r>
       <r>   -20.0994     0.0000    30.0000 </r>
       <r>   -20.0055     0.2076    30.0195 </r>
       <r>   -19.9116    16.7865    31.8103 </r>
       <r>   -19.8178    14.0750    33.6248 </r>
       <r>   -19.7239     1.3975    34.0000 </r>
       <r>   -19.6301    10.3160    34.9683 </r>
       <r>   -19.5362     7.8097    36.0000 </r>
       <r>   -19.4423     0.0000    36.0000 </r>
       <r>   -19.3485     0.0000    36.0000 </r>
       <r>   -19.2546    21.3078    38.0000 </r>
       <r>   -19.1607    20.9373    39.9652 </r>
       <r>   -19.0669     0.0000    40.0000 </r>
       <r>   -18.9730     0.0000    40.0000 </r>
       <r>   -18.8792     3.2010    40.3005 </r>
       <r>   -18.7853    32.9763    44.0000 </r>
       <r>   -18.6914    16.8534    45.5819 </r>
       <r>   -18.5976     9.2567    46.8689 </r>
       <r>   -18.5037     7.7948    48.0000 </r>
       <r>   -18.4098    20.5748    49.9312 </r>
       <r>   -18.3160    51.5654    56.1745 </r>
       <r>   -18.2221    33.9903    60.7608 </r>
       <r>   -18.1283    14.5367    62.2313 </r>
       <r>   -18.0344     3.6891    62.6136 </r>
       <r>   -17.9405     5.1903    63.1873 </r>
       <r>   -17.8467     2.3889    63.4576 </r>
       <r>   -17.7528     2.4373    63.7288 </r>
       <r>   -17.6589     8.6115    64.5755 </r>
       <r>   -17.5651    10.6287    65.7313 </r>
       <r>   -17.4712    16.8810    68.3518 </r>
       <r>   -17.3774     3.2197    68.7355 </r>
       <r>   -17.2835     6.1151    69.4075 </r>
       <r>   -17.1896     5.6786    70.0000 </r>
       <r>   -17.0958     0.0000    70.0000 </r>
       <r>   -17.0019     0.0000    70.0000 </r>
       <r>   -16.9081     0.0000    70.0000 </r>
       <r>   -16.8142     0.0000    70.0000 </r>
       <r>   -16.7203    39.9477    73.7496 </r>
       <r>   -16.6265     0.0000    74.0000 </r>
       <r>   -16.5326     3.0987    74.2909 </r>
       <r>   -16.4387     8.9056    75.2696 </r>
       <r>   -16.3449     6.5421    75.9475 </r>
       <r>   -16.2510     7.3516    76.7912 </r>
       <r>   -16.1572    10.9623    77.9627 </r>
       <r>   -16.0633    10.3489    78.9714 </r>
       <r>   -15.9694     2.3654    79.2221 </r>
       <r>   -15.8756     2.4383    79.4624 </r>
       <r>   -15.7817     7.5847    80.3457 </r>
       <r>   -15.6878    16.4380    81.9768 </r>
       <r>   -15.5940     0.6343    82.0595 </r>
       <r>   -15.5001     2.5436    82.4054 </r>
       <r>   -15.4063     2.9808    82.7133 </r>
       <r>   -15.3124     5.7678    83.3089 </r>
       <r>   -15.2185     7.1632    84.0397 </r>
       <r>   -15.1247    13.0891    86.0000 </r>
       <r>   -15.0308     0.0370    86.0035 </r>
       <r>   -14.9369    30.7483    88.8896 </r>
       <r>   -14.8431    17.4207    91.4708 </r>
       <r>   -14.7492    25.8653    93.9954 </r>
       <r>   -14.6554     5.5475    94.5217 </r>
       <r>   -14.5615    12.3799    95.7625 </r>
       <r>   -14.4676    28.3315    99.9958 </r>
       <r>   -14.3738    21.5711   102.0247 </r>
       <r>   -14.2799    44.2277   106.5542 </r>
       <r>   -14.1860    10.6406   107.9996 </r>
       <r>   -14.0922     0.0000   108.0000 </r>
       <r>   -13.9983     0.0000   108.0000 </r>
       <r>   -13.9045    29.6755   110.7854 </r>
       <r>   -13.8106    12.2352   112.0833 </r>
       <r>   -13.7167     6.5879   112.8186 </r>
       <r>   -13.6229    18.4361   114.8311 </r>
       <r>   -13.5290     8.5461   116.5702 </r>
       <r>   -13.4351     9.9306   118.0000 </r>
       <r>   -13.3413     0.0000   118.0000 </r>
       <r>   -13.2474    46.1291   122.3298 </r>
       <r>   -13.1536     7.4207   124.0000 </r>
       <r>   -13.0597    21.3078   126.0000 </r>
       <r>   -12.9658     0.0000   126.0000 </r>
       <r>   -12.8720     0.0000   126.0000 </r>
       <r>   -12.7781     0.0000   126.0000 </r>
       <r>   -12.6843     0.0000   126.0000 </r>
       <r>   -12.5904    21.1425   127.9845 </r>
       <r>   -12.4965     3.6848   128.3459 </r>
       <r>   -12.4027    25.2932   131.5422 </r>
       <r>   -12.3088    22.8398   134.1464 </r>
       <r>   -12.2149     9.9339   136.0000 </r>
       <r>   -12.1211     9.2383   136.8671 </r>
       <r>   -12.0272    45.1960   142.6496 </r>
       <r>   -11.9334    17.5294   144.9818 </r>
       <r>   -11.8395     7.3333   146.0231 </r>
       <r>   -11.7456    10.4111   147.2115 </r>
       <r>   -11.6518    10.5548   148.2908 </r>
       <r>   -11.5579     8.3370   149.3495 </r>
       <r>   -11.4640     4.7650   149.9808 </r>
       <r>   -11.3702     3.8330   150.4268 </r>
       <r>   -11.2763     7.5051   151.2045 </r>
       <r>   -11.1825     7.4798   152.0024 </r>
       <r>   -11.0886    22.9299   154.1546 </r>
       <r>   -10.9947    14.1320   156.0000 </r>
       <r>   -10.9009    15.3353   157.4394 </r>
       <r>   -10.8070    40.2820   161.7818 </r>
       <r>   -10.7131    41.1037   165.8581 </r>
       <r>   -10.6193    23.8685   168.2403 </r>
       <r>   -10.5254    46.6989   174.0000 </r>
       <r>   -10.4316    19.9063   175.8684 </r>
       <r>   -10.3377     0.0000   176.0000 </r>
       <r>   -10.2438    39.9223   179.7472 </r>
       <r>   -10.1500    57.7334   185.6589 </r>
       <r>   -10.0561    22.1915   188.0887 </r>
       <r>    -9.9622    90.3230   197.5021 </r>
       <r>    -9.8684    51.4484   202.8524 </r>
       <r>    -9.7745    15.9830   204.8690 </r>
       <r>    -9.6807     9.2989   206.2412 </r>
       <r>    -9.5868    40.8055   210.8315 </r>
       <r>    -9.4929    35.3221   215.3154 </r>
       <r>    -9.3991    30.7525   218.8865 </r>
       <r>    -9.3052    33.4108   222.6070 </r>
       <r>    -9.2114    40.7070   226.8901 </r>
       <r>    -9.1175    25.5375   229.9997 </r>
       <r>    -9.0236    21.3063   232.0000 </r>
       <r>    -8.9298    20.7702   233.9495 </r>
       <r>    -8.8359    27.2763   236.8281 </r>
       <r>    -8.7420    47.6247   241.6717 </r>
       <r>    -8.6482    25.1861   244.3648 </r>
       <r>    -8.5543    16.1754   245.9856 </r>
       <r>    -8.4605    27.0993   248.5436 </r>
       <r>    -8.3666    28.5075   251.7768 </r>
       <r>    -8.2727    20.9091   254.1637 </r>
       <r>    -8.1789    15.9060   255.8602 </r>
       <r>    -8.0850    27.8473   258.6139 </r>
       <r>    -7.9911    81.9658   267.6960 </r>
       <r>    -7.8973    42.2358   271.9643 </r>
       <r>    -7.8034     0.0000   272.0000 </r>
       <r>    -7.7096     0.2561   272.0240 </r>
       <r>    -7.6157    14.5467   273.6669 </r>
       <r>    -7.5218    13.8694   275.1701 </r>
       <r>    -7.4280    15.4049   276.9806 </r>
       <r>    -7.3341     6.7312   278.0000 </r>
       <r>    -7.2402     0.0000   278.0000 </r>
       <r>    -7.1464     0.0000   278.0000 </r>
       <r>    -7.0525     0.0000   278.0000 </r>
       <r>    -6.9587     7.0505   278.6618 </r>
       <r>    -6.8648    13.4032   280.3253 </r>
       <r>    -6.7709     5.3745   281.1720 </r>
       <r>    -6.6771    13.9425   282.8430 </r>
       <r>    -6.5832    14.0881   284.2901 </r>
       <r>    -6.4893    12.1442   285.8066 </r>
       <r>    -6.3955     0.0000   286.0000 </r>
       <r>    -6.3016    28.1512   288.6423 </r>
       <r>    -6.2078    53.3269   294.5793 </r>
       <r>    -6.1139    21.3078   298.0000 </r>
       <r>    -6.0200     4.7132   298.4424 </r>
       <r>    -5.9262    39.0016   303.6702 </r>
       <r>    -5.8323    21.0676   306.1461 </r>
       <r>    -5.7384    75.2284   313.9450 </r>
       <r>    -5.6446    16.7009   315.5676 </r>
       <r>    -5.5507    21.3078   320.0000 </r>
       <r>    -5.4569    21.3078   322.0000 </r>
       <r>    -5.3630     0.0000   322.0000 </r>
       <r>    -5.2691     0.0000   322.0000 </r>
       <r>    -5.1753     0.0000   322.0000 </r>
       <r>    -5.0814     0.0000   322.0000 </r>
       <r>    -4.9876     0.0000   322.0000 </r>
       <r>    -4.8937    21.3078   324.0000 </r>
       <r>    -4.7998     7.3348   324.6885 </r>
       <r>    -4.7060    16.8183   326.4806 </r>
       <r>    -4.6121     0.0000   328.0000 </r>
       <r>    -4.5182     7.0960   328.6660 </r>
       <r>    -4.4244    12.7681   329.9999 </r>
       <r>    -4.3305     0.0000   330.0000 </r>
       <r>    -4.2367     0.0000   330.0000 </r>
       <r>    -4.1428     0.0000   330.0000 </r>
       <r>    -4.0489     0.0000   330.0000 </r>
       <r>    -3.9551     0.0000   330.0000 </r>
       <r>    -3.8612     0.0000   330.0000 </r>
       <r>    -3.7673     0.0000   330.0000 </r>
       <r>    -3.6735     0.0000   330.0000 </r>
       <r>    -3.5796     0.0000   330.0000 </r>
       <r>    -3.4858     0.0000   330.0000 </r>
       <r>    -3.3919     0.0000   330.0000 </r>
       <r>    -3.2980     0.0000   330.0000 </r>
       <r>    -3.2042     0.0000   330.0000 </r>
       <r>    -3.1103     0.0000   330.0000 </r>
       <r>    -3.0164     0.0000   330.0000 </r>
       <r>    -2.9226     1.8590   330.1745 </r>
       <r>    -2.8287    31.7915   333.9196 </r>
       <r>    -2.7349     0.0000   334.0000 </r>
       <r>    -2.6410     0.0000   334.0000 </r>
       <r>    -2.5471     6.6879   334.6277 </r>
       <r>    -2.4533    15.1517   336.4230 </r>
       <r>    -2.3594    11.3588   338.0000 </r>
       <r>    -2.2655     0.0000   338.0000 </r>
       <r>    -2.1717     0.0000   338.0000 </r>
       <r>    -2.0778     5.2167   338.4897 </r>
       <r>    -1.9840    27.8330   341.2464 </r>
       <r>    -1.8901     0.0000   342.0000 </r>
       <r>    -1.7962     0.0000   342.0000 </r>
       <r>    -1.7024     0.0000   342.0000 </r>
       <r>    -1.6085     0.0000   342.0000 </r>
       <r>    -1.5146     0.0000   342.0000 </r>
       <r>    -1.4208    21.3078   344.0000 </r>
       <r>    -1.3269     0.0000   344.0000 </r>
       <r>    -1.2331     0.0000   344.0000 </r>
       <r>    -1.1392    14.1103   345.3244 </r>
       <r>    -1.0453    42.6142   351.9999 </r>
       <r>    -0.9515     0.0000   352.0000 </r>
       <r>    -0.8576     4.9600   352.4656 </r>
       <r>    -0.7638     0.0000   356.0000 </r>
       <r>    -0.6699     0.0000   356.0000 </r>
       <r>    -0.5760     4.3923   356.4123 </r>
       <r>    -0.4822    34.0729   360.0000 </r>
       <r>    -0.3883     0.0000   360.0000 </r>
       <r>    -0.2944     1.8864   360.1771 </r>
       <r>    -0.2006    35.1005   363.9971 </r>
       <r>    -0.1067    21.9656   366.2634 </r>
       <r>    -0.0129    32.5360   370.9598 </r>
       <r>     0.0810    16.5483   372.9551 </r>
       <r>     0.1749    33.7339   376.2359 </r>
       <r>     0.2687    56.0708   382.3390 </r>
       <r>     0.3626    29.9139   385.7421 </r>
       <r>     0.4565    36.8342   389.7274 </r>
       <r>     0.5503    82.7354   398.4698 </r>
       <r>     0.6442    72.1675   405.6443 </r>
       <r>     0.7380    82.3187   414.8672 </r>
       <r>     0.8319    59.8954   421.3589 </r>
       <r>     0.9258    76.0389   429.3475 </r>
       <r>     1.0196    85.4443   438.6965 </r>
       <r>     1.1135    70.1281   446.3198 </r>
       <r>     1.2074     9.5457   448.0000 </r>
       <r>     1.3012     0.0000   448.0000 </r>
       <r>     1.3951     0.0000   448.0000 </r>
       <r>     1.4889     0.0000   448.0000 </r>
       <r>     1.5828     0.0000   448.0000 </r>
       <r>     1.6767     0.0000   448.0000 </r>
       <r>     1.7705     0.0000   448.0000 </r>
       <r>     1.8644     0.0000   448.0000 </r>
       <r>     1.9583     0.0000   448.0000 </r>
       <r>     2.0521     0.0000   448.0000 </r>
       <r>     2.1460     0.0000   448.0000 </r>
       <r>     2.2398     0.0000   448.0000 </r>
       <r>     2.3337     0.0000   448.0000 </r>
       <r>     2.4276     0.0000   448.0000 </r>
      </set>
     </set>
    </array>
   </total>
  </dos>
 </calculation>
 <structure name="finalpos" >
  <crystal>
   <varray name="basis" >
    <v>      25.63045014       0.01337854       0.00000000 </v>
    <v>      -0.00324492      25.62266418       0.00000000 </v>
    <v>       0.00000000       0.00000000      20.00000000 </v>
   </varray>
   <i name="volume">  13134.40920551 </i>
   <varray name="rec_basis" >
    <v>       0.03901609       0.00000494       0.00000000 </v>
    <v>      -0.00002037       0.03902795       0.00000000 </v>
    <v>       0.00000000       0.00000000       0.05000000 </v>
   </varray>
  </crystal>
  <varray name="positions" >
   <v>       0.99699807       0.38108089       0.47870421 </v>
   <v>       0.60113232       0.99482427       0.47532151 </v>
   <v>       0.04746223       0.05145311       0.50377369 </v>
   <v>       0.93308134       0.04387110       0.50193642 </v>
   <v>       0.93663163       0.92938027       0.50134972 </v>
   <v>       0.05102008       0.93689701       0.50351466 </v>
   <v>       0.98886388       0.60012082       0.47296516 </v>
   <v>       0.38210511       0.98611385       0.47330430 </v>
   <v>       0.21586354       0.97993094       0.45562366 </v>
   <v>       0.26996079       0.98218495       0.45791486 </v>
   <v>       0.98321968       0.76632229       0.45317923 </v>
   <v>       0.98552882       0.71221925       0.45597122 </v>
   <v>       0.71344270       0.99841170       0.45619975 </v>
   <v>       0.76752632       0.00115374       0.45311730 </v>
   <v>       0.00270755       0.21493334       0.45627746 </v>
   <v>       0.00037741       0.26902865       0.45966557 </v>
   <v>       0.99454850       0.43539548       0.48338145 </v>
   <v>       0.98949300       0.46239554       0.42225121 </v>
   <v>       0.98633702       0.51632073       0.41988888 </v>
   <v>       0.54688031       0.99236001       0.48093316 </v>
   <v>       0.51926775       0.98710621       0.42029292 </v>
   <v>       0.46534961       0.98381266       0.41884138 </v>
   <v>       0.08394819       0.13147753       0.50749725 </v>
   <v>       0.12360492       0.09544369       0.50728075 </v>
   <v>       0.10069654       0.04436550       0.50584791 </v>
   <v>       0.03533319       0.10379841       0.50471279 </v>
   <v>       0.98493291       0.12563856       0.50450871 </v>
   <v>       0.93768776       0.09718909       0.50291830 </v>
   <v>       0.88044514       0.03421807       0.50184394 </v>
   <v>       0.85082266       0.08283256       0.50261424 </v>
   <v>       0.88647605       0.12206196       0.50219658 </v>
   <v>       0.85673766       0.98441909       0.50251019 </v>
   <v>       0.88338202       0.93638207       0.50194129 </v>
   <v>       0.94880411       0.87703448       0.50196588 </v>
   <v>       0.90020546       0.84927827       0.50246850 </v>
   <v>       0.86051804       0.88527184       0.50160632 </v>
   <v>       0.99916401       0.85519735       0.50352804 </v>
   <v>       0.04641981       0.88359547       0.50397608 </v>
   <v>       0.10361783       0.94652804       0.50479844 </v>
   <v>       0.13325399       0.89790853       0.50613675 </v>
   <v>       0.09761408       0.85868223       0.50468227 </v>
   <v>       0.12729164       0.99631829       0.50623082 </v>
   <v>       0.18532098       0.99892316       0.50892314 </v>
   <v>       0.29546063       0.00420618       0.51354357 </v>
   <v>       0.26508313       0.02347808       0.56660773 </v>
   <v>       0.21084210       0.02052161       0.56457186 </v>
   <v>       0.00209961       0.79717575       0.50623406 </v>
   <v>       0.00743128       0.68704466       0.51192181 </v>
   <v>       0.02672038       0.71774488       0.56466858 </v>
   <v>       0.02371607       0.77197356       0.56213322 </v>
   <v>       0.79872031       0.98153224       0.50541392 </v>
   <v>       0.77384008       0.95863955       0.56072319 </v>
   <v>       0.71966495       0.95502873       0.56339805 </v>
   <v>       0.68865506       0.97510300       0.51145556 </v>
   <v>       0.98193300       0.18365625       0.50775689 </v>
   <v>       0.95834373       0.20848613       0.56262731 </v>
   <v>       0.97643528       0.29376963       0.51451830 </v>
   <v>       0.95518251       0.26270246       0.56560550 </v>
   <v>       0.01085201       0.63023516       0.51608321 </v>
   <v>       0.63181817       0.97116685       0.51616190 </v>
   <v>       0.97283936       0.35064817       0.51932544 </v>
   <v>       0.35227178       0.00784387       0.51697413 </v>
   <v>       0.99122111       0.54577930       0.47894059 </v>
   <v>       0.99762385       0.51886482       0.53978815 </v>
   <v>       0.99930838       0.46446023       0.54376646 </v>
   <v>       0.00823810       0.43935941       0.61113384 </v>
   <v>       0.43647876       0.98871520       0.47837277 </v>
   <v>       0.46399835       0.99538221       0.53872863 </v>
   <v>       0.51842408       0.99726423       0.54181399 </v>
   <v>       0.54404971       0.00656677       0.60878205 </v>
   <v>       0.01636267       0.29321658       0.41976836 </v>
   <v>       0.02038228       0.19603866       0.41294853 </v>
   <v>       0.78649269       0.01834160       0.40952880 </v>
   <v>       0.68929954       0.01359993       0.41573864 </v>
   <v>       0.96702606       0.78558049       0.40915917 </v>
   <v>       0.97108089       0.68831111       0.41485847 </v>
   <v>       0.29361304       0.96756800       0.41663963 </v>
   <v>       0.19631862       0.96354779       0.41194143 </v>
   <v>       0.98725511       0.43922035       0.37659653 </v>
   <v>       0.98131347       0.53689323       0.37259618 </v>
   <v>       0.54200326       0.98483227       0.37429062 </v>
   <v>       0.44431337       0.97861183       0.37192176 </v>
   <v>       0.93646892       0.28143102       0.60843297 </v>
   <v>       0.94248395       0.18475741       0.60307453 </v>
   <v>       0.08765145       0.17359090       0.50948161 </v>
   <v>       0.16518723       0.10314450       0.50816265 </v>
   <v>       0.02069754       0.02198360       0.50270070 </v>
   <v>       0.96336979       0.95889408       0.50171800 </v>
   <v>       0.87893215       0.16372509       0.50141512 </v>
   <v>       0.80864408       0.08638935       0.50334561 </v>
   <v>       0.79750753       0.94376957       0.60186665 </v>
   <v>       0.70092138       0.93695638       0.60665889 </v>
   <v>       0.81895366       0.87749777       0.50077943 </v>
   <v>       0.89656317       0.80713432       0.50333073 </v>
   <v>       0.17541876       0.89437319       0.50796593 </v>
   <v>       0.10511190       0.81700344       0.50406965 </v>
   <v>       0.03808927       0.79540524       0.60377066 </v>
   <v>       0.04377411       0.69869527       0.60840133 </v>
   <v>       0.18768435       0.03480654       0.60652577 </v>
   <v>       0.28440562       0.04046002       0.61016949 </v>
   <v>       0.03416445       0.61486938       0.55833331 </v>
   <v>       0.61706269       0.94562737       0.55645524 </v>
   <v>       0.94702493       0.36559370       0.55920789 </v>
   <v>       0.36787775       0.03113877       0.55910144 </v>
   <v>       0.00066323       0.54109055       0.58625617 </v>
   <v>       0.02933908       0.46628186       0.64419954 </v>
   <v>       0.97143599       0.42927595       0.63637887 </v>
   <v>       0.03117076       0.40326002       0.60702886 </v>
   <v>       0.44224374       0.99845601       0.58556032 </v>
   <v>       0.51742034       0.02796627       0.64196655 </v>
   <v>       0.55425811       0.96990241       0.63432787 </v>
   <v>       0.58015561       0.02938227       0.60405004 </v>
  </varray>
 </structure>
</modeling>
