<?xml version="1.0" encoding="ISO-8859-1"?>
<modeling>
 <generator>
  <i name="program" type="string">vasp </i>
  <i name="version" type="string">5.4.4.18Apr17-6-g9f103f2a35  </i>
  <i name="subversion" type="string">(build Jun 07 2020 16:50:00) complex            parallel </i>
  <i name="platform" type="string">LinuxIFC </i>
  <i name="date" type="string">2023 02 26 </i>
  <i name="time" type="string">02:40:23 </i>
 </generator>
 <incar>
  <i type="string" name="SYSTEM">Simulation for cell shape cell volume r</i>
  <i type="int" name="ISTART">     1</i>
  <i type="string" name="PREC">high</i>
  <i type="string" name="ALGO">48</i>
  <i type="int" name="ICHARG">    11</i>
  <i type="int" name="NELM">   200</i>
  <i type="int" name="IBRION">    -1</i>
  <i name="EDIFF">      0.00001000</i>
  <i name="EDIFFG">     -0.01000000</i>
  <i type="int" name="NSW">     0</i>
  <i type="int" name="ISIF">     2</i>
  <i name="ENCUT">    500.00000000</i>
  <i name="POTIM">      0.30000000</i>
  <i type="string" name="LREAL">A</i>
  <i type="int" name="ISMEAR">     0</i>
  <i name="SIGMA">      0.01000000</i>
  <i type="int" name="NWRITE">     0</i>
  <i type="logical" name="LWAVE"> F  </i>
  <i type="logical" name="LCHARG"> F  </i>
  <v type="int" name="KPOINT_BSE">    -1     0     0     0</v>
  <i type="int" name="NELM">   200</i>
  <i type="string" name="GGA">PE</i>
 </incar>
 <structure name="primitive_cell" >
  <crystal>
   <varray name="basis" >
    <v>      29.79309212      -0.00067499       0.00000000 </v>
    <v>     -14.89713067      25.79488898       0.00000000 </v>
    <v>       0.00000000       0.00000000      20.00000000 </v>
   </varray>
   <i name="volume">  15369.98896717 </i>
   <varray name="rec_basis" >
    <v>       0.03356527       0.01938470       0.00000000 </v>
    <v>       0.00000088       0.03876788       0.00000000 </v>
    <v>       0.00000000       0.00000000       0.05000000 </v>
   </varray>
  </crystal>
  <varray name="positions" >
   <v>       0.12204140      -0.36754618      -0.49166416 </v>
   <v>       0.14287302      -0.38898983      -0.49271567 </v>
   <v>       0.19677899      -0.36220735      -0.49586502 </v>
   <v>       0.11498753      -0.44338200      -0.49049690 </v>
   <v>       0.21642186      -0.32004882      -0.49714807 </v>
   <v>       0.05710879      -0.47229741      -0.48853094 </v>
   <v>       0.11786063      -0.44172999      -0.39111229 </v>
   <v>       0.03420016      -0.48403494       0.45086317 </v>
   <v>       0.14284919      -0.46989585      -0.49299470 </v>
   <v>       0.22540838      -0.38815399      -0.49710958 </v>
   <v>       0.02694681      -0.48706967      -0.42938113 </v>
   <v>       0.09938951      -0.45072419      -0.34805743 </v>
   <v>       0.19675779      -0.44274898      -0.49613385 </v>
   <v>       0.04720608      -0.47667814      -0.35737882 </v>
   <v>       0.12201443       0.48781544      -0.49215731 </v>
   <v>       0.29025900      -0.28381544      -0.49829068 </v>
   <v>      -0.01745937       0.49011144       0.44888773 </v>
   <v>      -0.02504811       0.48698454      -0.43257251 </v>
   <v>       0.28316523      -0.35926235      -0.49850161 </v>
   <v>      -0.04772927       0.47533581      -0.49259493 </v>
   <v>       0.21639588      -0.46525764      -0.49766080 </v>
   <v>       0.31129348      -0.30487118      -0.49865135 </v>
   <v>       0.01817344      -0.49088851      -0.30975223 </v>
   <v>      -0.03560354       0.48074946       0.39947581 </v>
   <v>       0.32651623      -0.20999875      -0.49721040 </v>
   <v>       0.31127019      -0.38553024      -0.49844310 </v>
   <v>      -0.11225290      -0.48463145      -0.49477942 </v>
   <v>       0.29021886      -0.42762218      -0.49780460 </v>
   <v>      -0.10537113       0.44654315      -0.49507430 </v>
   <v>       0.36567537      -0.27676190      -0.49853741 </v>
   <v>       0.36866929      -0.19034911      -0.49592950 </v>
   <v>      -0.13308072       0.47307142      -0.49575141 </v>
   <v>       0.39459286      -0.21900105      -0.49711630 </v>
   <v>       0.36564565      -0.35926652      -0.49843282 </v>
   <v>       0.39192336      -0.30488444      -0.49859199 </v>
   <v>      -0.13311340       0.39229648      -0.49574313 </v>
   <v>      -0.11230400       0.37081859      -0.49476427 </v>
   <v>       0.37405878      -0.11556687      -0.49172375 </v>
   <v>       0.39546928      -0.13643326      -0.49279924 </v>
   <v>       0.32641732      -0.46522694      -0.49772148 </v>
   <v>      -0.18705384       0.44595292      -0.49670169 </v>
   <v>       0.43401306      -0.28384449      -0.49819662 </v>
   <v>       0.39452142      -0.38813590      -0.49702173 </v>
   <v>       0.44918119      -0.19038479      -0.49601177 </v>
   <v>      -0.20674729       0.46843632      -0.49679015 </v>
   <v>      -0.18708503       0.36544226      -0.49662906 </v>
   <v>       0.36856578      -0.44272662      -0.49615636 </v>
   <v>       0.44984946      -0.10858554      -0.49052873 </v>
   <v>      -0.21572261       0.39137162      -0.49700314 </v>
   <v>       0.47166392      -0.21005586      -0.49734731 </v>
   <v>       0.44827894      -0.11175690      -0.39133793 </v>
   <v>       0.47634687      -0.13646598      -0.49291036 </v>
   <v>      -0.20679056       0.32325732      -0.49659006 </v>
   <v>       0.45760467      -0.09340722      -0.34819363 </v>
   <v>       0.44910280      -0.36216660      -0.49567203 </v>
   <v>       0.47160628      -0.32000332      -0.49683057 </v>
   <v>       0.39532835      -0.46986777      -0.49307256 </v>
   <v>       0.47875102      -0.05071252      -0.48842663 </v>
   <v>       0.37389904       0.48784212      -0.49231473 </v>
   <v>      -0.48137186      -0.11564291      -0.49192218 </v>
   <v>      -0.28055652       0.43084831      -0.49709020 </v>
   <v>      -0.27349406       0.36248627      -0.49734808 </v>
   <v>       0.48362061      -0.04117710      -0.35725562 </v>
   <v>       0.49031981      -0.02770672       0.45102895 </v>
   <v>       0.49363559      -0.02068007      -0.42916779 </v>
   <v>       0.47623066      -0.38894088      -0.49256029 </v>
   <v>      -0.30161124       0.38874792      -0.49734557 </v>
   <v>       0.44969856      -0.44333414      -0.49049925 </v>
   <v>       0.44800882      -0.44208152      -0.39114219 </v>
   <v>      -0.28059051       0.28704202      -0.49727796 </v>
   <v>      -0.30162811       0.30809756      -0.49743741 </v>
   <v>      -0.31680486       0.46845986      -0.49688108 </v>
   <v>       0.49822209      -0.01230267      -0.30946102 </v>
   <v>      -0.48388056       0.02396642       0.44921317 </v>
   <v>       0.45766612      -0.45088758      -0.34807622 </v>
   <v>      -0.48148972      -0.36749806      -0.49140838 </v>
   <v>      -0.48054852       0.03133070      -0.43220646 </v>
   <v>      -0.47459176       0.04221178       0.39985822 </v>
   <v>      -0.35599116       0.36249553      -0.49741383 </v>
   <v>      -0.46903079       0.05413052      -0.49216993 </v>
   <v>       0.47860825      -0.47227330      -0.48856019 </v>
   <v>      -0.35898606       0.44596019      -0.49678707 </v>
   <v>      -0.35600715       0.27996942      -0.49746503 </v>
   <v>      -0.31686198       0.21315426      -0.49688028 </v>
   <v>       0.48430285      -0.47643982      -0.35740679 </v>
   <v>      -0.38488295       0.39137866      -0.49711308 </v>
   <v>       0.48964603      -0.48413240       0.45084234 </v>
   <v>       0.49105189       0.11878560      -0.49456240 </v>
   <v>      -0.36439302      -0.48464288      -0.49484224 </v>
   <v>      -0.38224801       0.30810734      -0.49749129 </v>
   <v>       0.49407615      -0.48694534      -0.42941022 </v>
   <v>      -0.38585905       0.47306269      -0.49581304 </v>
   <v>      -0.44019844       0.11179344      -0.49469041 </v>
   <v>      -0.35904230       0.19348718      -0.49670339 </v>
   <v>      -0.38491724       0.22218207      -0.49710526 </v>
   <v>      -0.46665823       0.13957033      -0.49554741 </v>
   <v>       0.49951171      -0.49026206      -0.30977765 </v>
   <v>      -0.42434239       0.28706029      -0.49735584 </v>
   <v>      -0.48453300       0.49002852       0.44884693 </v>
   <v>      -0.43945548       0.36544457      -0.49679012 </v>
   <v>      -0.47990867       0.48708943      -0.43263700 </v>
   <v>      -0.44010136       0.44653518      -0.49513865 </v>
   <v>      -0.38595180       0.13950221      -0.49554479 </v>
   <v>      -0.36450489       0.11866037      -0.49453259 </v>
   <v>      -0.47578419       0.48063951       0.39943411 </v>
   <v>      -0.46192885       0.32325644      -0.49682194 </v>
   <v>      -0.46895061       0.47533910      -0.49264238 </v>
   <v>      -0.43949158       0.19355299      -0.49672003 </v>
   <v>      -0.46658939       0.39228520      -0.49588501 </v>
   <v>      -0.46193191       0.21328955      -0.49692577 </v>
   <v>       0.49112023       0.37076982      -0.49495388 </v>
  </varray>
 </structure>
 <varray name="primitive_index" >
  <v type="int" >        1 </v>
  <v type="int" >       54 </v>
  <v type="int" >       53 </v>
  <v type="int" >       55 </v>
  <v type="int" >        2 </v>
  <v type="int" >       37 </v>
  <v type="int" >       33 </v>
  <v type="int" >      106 </v>
  <v type="int" >       56 </v>
  <v type="int" >       52 </v>
  <v type="int" >       38 </v>
  <v type="int" >      101 </v>
  <v type="int" >       57 </v>
  <v type="int" >       39 </v>
  <v type="int" >        3 </v>
  <v type="int" >       13 </v>
  <v type="int" >       99 </v>
  <v type="int" >      109 </v>
  <v type="int" >       40 </v>
  <v type="int" >       96 </v>
  <v type="int" >        4 </v>
  <v type="int" >       41 </v>
  <v type="int" >      100 </v>
  <v type="int" >       36 </v>
  <v type="int" >       12 </v>
  <v type="int" >       45 </v>
  <v type="int" >       18 </v>
  <v type="int" >       14 </v>
  <v type="int" >       79 </v>
  <v type="int" >       42 </v>
  <v type="int" >       47 </v>
  <v type="int" >       80 </v>
  <v type="int" >       46 </v>
  <v type="int" >       44 </v>
  <v type="int" >       43 </v>
  <v type="int" >       78 </v>
  <v type="int" >       16 </v>
  <v type="int" >       11 </v>
  <v type="int" >       48 </v>
  <v type="int" >        5 </v>
  <v type="int" >       81 </v>
  <v type="int" >       15 </v>
  <v type="int" >       58 </v>
  <v type="int" >       51 </v>
  <v type="int" >       19 </v>
  <v type="int" >       77 </v>
  <v type="int" >       59 </v>
  <v type="int" >       49 </v>
  <v type="int" >       76 </v>
  <v type="int" >        9 </v>
  <v type="int" >       31 </v>
  <v type="int" >       50 </v>
  <v type="int" >       17 </v>
  <v type="int" >      103 </v>
  <v type="int" >       63 </v>
  <v type="int" >        7 </v>
  <v type="int" >       60 </v>
  <v type="int" >       88 </v>
  <v type="int" >        6 </v>
  <v type="int" >       10 </v>
  <v type="int" >       29 </v>
  <v type="int" >       64 </v>
  <v type="int" >       91 </v>
  <v type="int" >      110 </v>
  <v type="int" >       90 </v>
  <v type="int" >       62 </v>
  <v type="int" >       69 </v>
  <v type="int" >       61 </v>
  <v type="int" >       32 </v>
  <v type="int" >       28 </v>
  <v type="int" >       65 </v>
  <v type="int" >       20 </v>
  <v type="int" >      102 </v>
  <v type="int" >       97 </v>
  <v type="int" >      105 </v>
  <v type="int" >        8 </v>
  <v type="int" >      107 </v>
  <v type="int" >       34 </v>
  <v type="int" >       68 </v>
  <v type="int" >       89 </v>
  <v type="int" >       92 </v>
  <v type="int" >       83 </v>
  <v type="int" >       66 </v>
  <v type="int" >       27 </v>
  <v type="int" >       95 </v>
  <v type="int" >       82 </v>
  <v type="int" >      111 </v>
  <v type="int" >       25 </v>
  <v type="int" >       21 </v>
  <v type="int" >       67 </v>
  <v type="int" >       94 </v>
  <v type="int" >       84 </v>
  <v type="int" >       73 </v>
  <v type="int" >       71 </v>
  <v type="int" >       70 </v>
  <v type="int" >       74 </v>
  <v type="int" >      104 </v>
  <v type="int" >       30 </v>
  <v type="int" >       98 </v>
  <v type="int" >       87 </v>
  <v type="int" >      108 </v>
  <v type="int" >       85 </v>
  <v type="int" >       72 </v>
  <v type="int" >       26 </v>
  <v type="int" >       35 </v>
  <v type="int" >       22 </v>
  <v type="int" >       93 </v>
  <v type="int" >       75 </v>
  <v type="int" >       86 </v>
  <v type="int" >       24 </v>
  <v type="int" >       23 </v>
 </varray>
 <kpoints>
  <generation param="listgenerated">
   <i name="divisions" type="int">      20 </i>
   <v>       0.00000000       0.00000000       0.00000000 </v>
   <v>       0.50000000       0.00000000       0.00000000 </v>
   <v>       0.33333333       0.33333333       0.00000000 </v>
   <v>       0.00000000       0.00000000       0.00000000 </v>
  </generation>
  <varray name="kpointlist" >
   <v>       0.00000000       0.00000000       0.00000000 </v>
   <v>       0.02631579       0.00000000       0.00000000 </v>
   <v>       0.05263158       0.00000000       0.00000000 </v>
   <v>       0.07894737       0.00000000       0.00000000 </v>
   <v>       0.10526316       0.00000000       0.00000000 </v>
   <v>       0.13157895       0.00000000       0.00000000 </v>
   <v>       0.15789474       0.00000000       0.00000000 </v>
   <v>       0.18421053       0.00000000       0.00000000 </v>
   <v>       0.21052632       0.00000000       0.00000000 </v>
   <v>       0.23684211       0.00000000       0.00000000 </v>
   <v>       0.26315789       0.00000000       0.00000000 </v>
   <v>       0.28947368       0.00000000       0.00000000 </v>
   <v>       0.31578947       0.00000000       0.00000000 </v>
   <v>       0.34210526       0.00000000       0.00000000 </v>
   <v>       0.36842105       0.00000000       0.00000000 </v>
   <v>       0.39473684       0.00000000       0.00000000 </v>
   <v>       0.42105263       0.00000000       0.00000000 </v>
   <v>       0.44736842       0.00000000       0.00000000 </v>
   <v>       0.47368421       0.00000000       0.00000000 </v>
   <v>       0.50000000       0.00000000       0.00000000 </v>
   <v>       0.50000000       0.00000000       0.00000000 </v>
   <v>       0.49122807       0.01754386       0.00000000 </v>
   <v>       0.48245614       0.03508772       0.00000000 </v>
   <v>       0.47368421       0.05263158       0.00000000 </v>
   <v>       0.46491228       0.07017544       0.00000000 </v>
   <v>       0.45614035       0.08771930       0.00000000 </v>
   <v>       0.44736842       0.10526316       0.00000000 </v>
   <v>       0.43859649       0.12280702       0.00000000 </v>
   <v>       0.42982456       0.14035088       0.00000000 </v>
   <v>       0.42105263       0.15789474       0.00000000 </v>
   <v>       0.41228070       0.17543860       0.00000000 </v>
   <v>       0.40350877       0.19298246       0.00000000 </v>
   <v>       0.39473684       0.21052632       0.00000000 </v>
   <v>       0.38596491       0.22807018       0.00000000 </v>
   <v>       0.37719298       0.24561404       0.00000000 </v>
   <v>       0.36842105       0.26315789       0.00000000 </v>
   <v>       0.35964912       0.28070175       0.00000000 </v>
   <v>       0.35087719       0.29824561       0.00000000 </v>
   <v>       0.34210526       0.31578947       0.00000000 </v>
   <v>       0.33333333       0.33333333       0.00000000 </v>
   <v>       0.33333333       0.33333333       0.00000000 </v>
   <v>       0.31578947       0.31578947       0.00000000 </v>
   <v>       0.29824561       0.29824561       0.00000000 </v>
   <v>       0.28070175       0.28070175       0.00000000 </v>
   <v>       0.26315789       0.26315789       0.00000000 </v>
   <v>       0.24561404       0.24561404       0.00000000 </v>
   <v>       0.22807018       0.22807018       0.00000000 </v>
   <v>       0.21052632       0.21052632       0.00000000 </v>
   <v>       0.19298246       0.19298246       0.00000000 </v>
   <v>       0.17543860       0.17543860       0.00000000 </v>
   <v>       0.15789474       0.15789474       0.00000000 </v>
   <v>       0.14035088       0.14035088       0.00000000 </v>
   <v>       0.12280702       0.12280702       0.00000000 </v>
   <v>       0.10526316       0.10526316       0.00000000 </v>
   <v>       0.08771930       0.08771930       0.00000000 </v>
   <v>       0.07017544       0.07017544       0.00000000 </v>
   <v>       0.05263158       0.05263158       0.00000000 </v>
   <v>       0.03508772       0.03508772       0.00000000 </v>
   <v>       0.01754386       0.01754386       0.00000000 </v>
   <v>       0.00000000       0.00000000       0.00000000 </v>
  </varray>
  <varray name="weights" >
   <v>       0.01666667 </v>
   <v>       0.01666667 </v>
   <v>       0.01666667 </v>
   <v>       0.01666667 </v>
   <v>       0.01666667 </v>
   <v>       0.01666667 </v>
   <v>       0.01666667 </v>
   <v>       0.01666667 </v>
   <v>       0.01666667 </v>
   <v>       0.01666667 </v>
   <v>       0.01666667 </v>
   <v>       0.01666667 </v>
   <v>       0.01666667 </v>
   <v>       0.01666667 </v>
   <v>       0.01666667 </v>
   <v>       0.01666667 </v>
   <v>       0.01666667 </v>
   <v>       0.01666667 </v>
   <v>       0.01666667 </v>
   <v>       0.01666667 </v>
   <v>       0.01666667 </v>
   <v>       0.01666667 </v>
   <v>       0.01666667 </v>
   <v>       0.01666667 </v>
   <v>       0.01666667 </v>
   <v>       0.01666667 </v>
   <v>       0.01666667 </v>
   <v>       0.01666667 </v>
   <v>       0.01666667 </v>
   <v>       0.01666667 </v>
   <v>       0.01666667 </v>
   <v>       0.01666667 </v>
   <v>       0.01666667 </v>
   <v>       0.01666667 </v>
   <v>       0.01666667 </v>
   <v>       0.01666667 </v>
   <v>       0.01666667 </v>
   <v>       0.01666667 </v>
   <v>       0.01666667 </v>
   <v>       0.01666667 </v>
   <v>       0.01666667 </v>
   <v>       0.01666667 </v>
   <v>       0.01666667 </v>
   <v>       0.01666667 </v>
   <v>       0.01666667 </v>
   <v>       0.01666667 </v>
   <v>       0.01666667 </v>
   <v>       0.01666667 </v>
   <v>       0.01666667 </v>
   <v>       0.01666667 </v>
   <v>       0.01666667 </v>
   <v>       0.01666667 </v>
   <v>       0.01666667 </v>
   <v>       0.01666667 </v>
   <v>       0.01666667 </v>
   <v>       0.01666667 </v>
   <v>       0.01666667 </v>
   <v>       0.01666667 </v>
   <v>       0.01666667 </v>
   <v>       0.01666667 </v>
  </varray>
 </kpoints>
 <parameters>
  <separator name="general" >
   <i type="string" name="SYSTEM">Simulation for cell shape cell volume r</i>
   <i type="logical" name="LCOMPAT"> F  </i>
  </separator>
  <separator name="electronic" >
   <i type="string" name="PREC">high</i>
   <i name="ENMAX">    500.00000000</i>
   <i name="ENAUG">    644.87300000</i>
   <i name="EDIFF">      0.00001000</i>
   <i type="int" name="IALGO">    38</i>
   <i type="int" name="IWAVPR">    10</i>
   <i type="int" name="NBANDS">   240</i>
   <i name="NELECT">    354.00000000</i>
   <i type="int" name="TURBO">     0</i>
   <i type="int" name="IRESTART">     0</i>
   <i type="int" name="NREBOOT">     0</i>
   <i type="int" name="NMIN">     0</i>
   <i name="EREF">      0.00000000</i>
   <separator name="electronic smearing" >
    <i type="int" name="ISMEAR">     0</i>
    <i name="SIGMA">      0.01000000</i>
    <i name="KSPACING">      0.50000000</i>
    <i type="logical" name="KGAMMA"> T  </i>
   </separator>
   <separator name="electronic projectors" >
    <i type="logical" name="LREAL"> T  </i>
    <v name="ROPT">     -0.00040000     -0.00040000     -0.00040000     -0.00040000</v>
    <i type="int" name="LMAXPAW">  -100</i>
    <i type="int" name="LMAXMIX">     2</i>
    <i type="logical" name="NLSPLINE"> F  </i>
   </separator>
   <separator name="electronic startup" >
    <i type="int" name="ISTART">     1</i>
    <i type="int" name="ICHARG">    11</i>
    <i type="int" name="INIWAV">     1</i>
   </separator>
   <separator name="electronic spin" >
    <i type="int" name="ISPIN">     1</i>
    <i type="logical" name="LNONCOLLINEAR"> F  </i>
    <v name="MAGMOM">      1.00000000      1.00000000      1.00000000      1.00000000      1.00000000      1.00000000      1.00000000      1.00000000      1.00000000      1.00000000      1.00000000      1.00000000      1.00000000      1.00000000      1.00000000      1.00000000      1.00000000      1.00000000      1.00000000      1.00000000
      1.00000000      1.00000000      1.00000000      1.00000000      1.00000000      1.00000000      1.00000000      1.00000000      1.00000000      1.00000000      1.00000000      1.00000000      1.00000000      1.00000000      1.00000000      1.00000000      1.00000000      1.00000000      1.00000000      1.00000000
      1.00000000      1.00000000      1.00000000      1.00000000      1.00000000      1.00000000      1.00000000      1.00000000      1.00000000      1.00000000      1.00000000      1.00000000      1.00000000      1.00000000      1.00000000      1.00000000      1.00000000      1.00000000      1.00000000      1.00000000
      1.00000000      1.00000000      1.00000000      1.00000000      1.00000000      1.00000000      1.00000000      1.00000000      1.00000000      1.00000000      1.00000000      1.00000000      1.00000000      1.00000000      1.00000000      1.00000000      1.00000000      1.00000000      1.00000000      1.00000000
      1.00000000      1.00000000      1.00000000      1.00000000      1.00000000      1.00000000      1.00000000      1.00000000      1.00000000      1.00000000      1.00000000      1.00000000      1.00000000      1.00000000      1.00000000      1.00000000      1.00000000      1.00000000      1.00000000      1.00000000
      1.00000000      1.00000000      1.00000000      1.00000000      1.00000000      1.00000000      1.00000000      1.00000000      1.00000000      1.00000000      1.00000000</v>
    <i name="NUPDOWN">     -1.00000000</i>
    <i type="logical" name="LSORBIT"> F  </i>
    <v name="SAXIS">      0.00000000      0.00000000      1.00000000</v>
    <i type="logical" name="LSPIRAL"> F  </i>
    <v name="QSPIRAL">      0.00000000      0.00000000      0.00000000</v>
    <i type="logical" name="LZEROZ"> F  </i>
   </separator>
   <separator name="electronic exchange-correlation" >
    <i type="logical" name="LASPH"> F  </i>
    <i type="logical" name="LMETAGGA"> F  </i>
   </separator>
   <separator name="electronic convergence" >
    <i type="int" name="NELM">   200</i>
    <i type="int" name="NELMDL">     0</i>
    <i type="int" name="NELMIN">     2</i>
    <i name="ENINI">    500.00000000</i>
    <separator name="electronic convergence detail" >
     <i type="logical" name="LDIAG"> T  </i>
     <i type="logical" name="LSUBROT"> F  </i>
     <i name="WEIMIN">      0.00000000</i>
     <i name="EBREAK">      0.00000001</i>
     <i name="DEPER">      0.30000000</i>
     <i type="int" name="NRMM">     4</i>
     <i name="TIME">      0.40000000</i>
    </separator>
   </separator>
   <separator name="electronic mixer" >
    <i name="AMIX">      0.40000000</i>
    <i name="BMIX">      1.00000000</i>
    <i name="AMIN">      0.10000000</i>
    <i name="AMIX_MAG">      1.60000000</i>
    <i name="BMIX_MAG">      1.00000000</i>
    <separator name="electronic mixer details" >
     <i type="int" name="IMIX">     4</i>
     <i type="logical" name="MIXFIRST"> F  </i>
     <i type="int" name="MAXMIX">   -45</i>
     <i name="WC">    100.00000000</i>
     <i type="int" name="INIMIX">     1</i>
     <i type="int" name="MIXPRE">     1</i>
     <i type="int" name="MREMOVE">     5</i>
    </separator>
   </separator>
   <separator name="electronic dipolcorrection" >
    <i type="logical" name="LDIPOL"> F  </i>
    <i type="logical" name="LMONO"> F  </i>
    <i type="int" name="IDIPOL">     0</i>
    <i name="EPSILON">      1.00000000</i>
    <v name="DIPOL">   -100.00000000   -100.00000000   -100.00000000</v>
    <i name="EFIELD">      0.00000000</i>
   </separator>
  </separator>
  <separator name="grids" >
   <i type="int" name="NGX">   224</i>
   <i type="int" name="NGY">   224</i>
   <i type="int" name="NGZ">   150</i>
   <i type="int" name="NGXF">   336</i>
   <i type="int" name="NGYF">   336</i>
   <i type="int" name="NGZF">   224</i>
   <i type="logical" name="ADDGRID"> F  </i>
  </separator>
  <separator name="ionic" >
   <i type="int" name="NSW">     0</i>
   <i type="int" name="IBRION">    -1</i>
   <i type="int" name="MDALGO">     0</i>
   <i type="int" name="ISIF">     2</i>
   <i name="PSTRESS">      0.00000000</i>
   <i name="EDIFFG">     -0.01000000</i>
   <i type="int" name="NFREE">     0</i>
   <i name="POTIM">      0.30000000</i>
   <i name="SMASS">     -3.00000000</i>
   <i name="SCALEE">      1.00000000</i>
  </separator>
  <separator name="ionic md" >
   <i name="TEBEG">      0.00010000</i>
   <i name="TEEND">      0.00010000</i>
   <i type="int" name="NBLOCK">     1</i>
   <i type="int" name="KBLOCK">     1</i>
   <i type="int" name="NPACO">   256</i>
   <i name="APACO">     16.00000000</i>
  </separator>
  <separator name="symmetry" >
   <i type="int" name="ISYM">     2</i>
   <i name="SYMPREC">      0.00001000</i>
  </separator>
  <separator name="dos" >
   <i type="int" name="LORBIT">     0</i>
   <v name="RWIGS">     -1.00000000     -1.00000000     -1.00000000     -1.00000000</v>
   <i type="int" name="NEDOS">   301</i>
   <i name="EMIN">     10.00000000</i>
   <i name="EMAX">    -10.00000000</i>
   <i name="EFERMI">      0.00000000</i>
  </separator>
  <separator name="writing" >
   <i type="int" name="NWRITE">     0</i>
   <i type="logical" name="LWAVE"> F  </i>
   <i type="logical" name="LDOWNSAMPLE"> F  </i>
   <i type="logical" name="LCHARG"> F  </i>
   <i type="logical" name="LPARD"> F  </i>
   <i type="logical" name="LVTOT"> F  </i>
   <i type="logical" name="LVHAR"> F  </i>
   <i type="logical" name="LELF"> F  </i>
   <i type="logical" name="LOPTICS"> F  </i>
   <v name="STM">      0.00000000      0.00000000      0.00000000      0.00000000      0.00000000      0.00000000      0.00000000</v>
  </separator>
  <separator name="performance" >
   <i type="int" name="NPAR">    16</i>
   <i type="int" name="NSIM">     4</i>
   <i type="int" name="NBLK">    -1</i>
   <i type="logical" name="LPLANE"> T  </i>
   <i type="logical" name="LSCALAPACK"> T  </i>
   <i type="logical" name="LSCAAWARE"> F  </i>
   <i type="logical" name="LSCALU"> F  </i>
   <i type="logical" name="LASYNC"> F  </i>
   <i type="logical" name="LORBITALREAL"> F  </i>
  </separator>
  <separator name="miscellaneous" >
   <i type="int" name="IDIOT">     3</i>
   <i type="int" name="ISPECIAL">     0</i>
   <i type="logical" name="LMUSIC"> F  </i>
   <v name="POMASS">      1.00000000     12.01100000     16.00000000     14.00100000</v>
   <v name="DARWINR">      0.00000000      0.00000000      0.00000000      0.00000000</v>
   <v name="DARWINV">      1.00000000      1.00000000      1.00000000      1.00000000</v>
   <i type="logical" name="LCORR"> T  </i>
  </separator>
  <i type="logical" name="GGA_COMPAT"> T  </i>
  <i type="logical" name="LBERRY"> F  </i>
  <i type="int" name="ICORELEVEL">     0</i>
  <i type="logical" name="LDAU"> F  </i>
  <i type="int" name="I_CONSTRAINED_M">     0</i>
  <separator name="electronic exchange-correlation" >
   <i type="string" name="GGA">PE</i>
   <i type="int" name="VOSKOWN">     0</i>
   <i type="logical" name="LHFCALC"> F  </i>
   <i type="string" name="PRECFOCK"></i>
   <i type="logical" name="LSYMGRAD"> F  </i>
   <i type="logical" name="LHFONE"> F  </i>
   <i type="logical" name="LRHFCALC"> F  </i>
   <i type="logical" name="LTHOMAS"> F  </i>
   <i type="logical" name="LMODELHF"> F  </i>
   <i name="ENCUT4O">     -1.00000000</i>
   <i type="int" name="EXXOEP">     0</i>
   <i type="int" name="FOURORBIT">     0</i>
   <i name="AEXX">      0.00000000</i>
   <i name="HFALPHA">      0.00000000</i>
   <i name="MCALPHA">      0.00000000</i>
   <i name="ALDAX">      1.00000000</i>
   <i name="AGGAX">      1.00000000</i>
   <i name="ALDAC">      1.00000000</i>
   <i name="AGGAC">      1.00000000</i>
   <i type="int" name="NKREDX">     1</i>
   <i type="int" name="NKREDY">     1</i>
   <i type="int" name="NKREDZ">     1</i>
   <i type="logical" name="SHIFTRED"> F  </i>
   <i type="logical" name="ODDONLY"> F  </i>
   <i type="logical" name="EVENONLY"> F  </i>
   <i type="int" name="LMAXFOCK">     0</i>
   <i type="int" name="NMAXFOCKAE">     0</i>
   <i type="logical" name="LFOCKAEDFT"> F  </i>
   <i name="HFSCREEN">      0.00000000</i>
   <i name="HFSCREENC">      0.00000000</i>
   <i type="int" name="NBANDSGWLOW">     0</i>
  </separator>
  <separator name="vdW DFT" >
   <i type="logical" name="LUSE_VDW"> F  </i>
   <i name="Zab_VDW">     -0.84910000</i>
   <i name="PARAM1">      0.12340000</i>
   <i name="PARAM2">      1.00000000</i>
   <i name="PARAM3">      0.00000000</i>
  </separator>
  <separator name="model GW" >
   <i type="int" name="MODEL_GW">     0</i>
   <i name="MODEL_EPS0">     83.08102144</i>
   <i name="MODEL_ALPHA">      1.00000000</i>
  </separator>
  <separator name="linear response parameters" >
   <i type="logical" name="LEPSILON"> F  </i>
   <i type="logical" name="LRPA"> F  </i>
   <i type="logical" name="LNABLA"> F  </i>
   <i type="logical" name="LVEL"> F  </i>
   <i type="int" name="KINTER">     0</i>
   <i name="CSHIFT">      0.10000000</i>
   <i name="OMEGAMAX">     -1.00000000</i>
   <i name="DEG_THRESHOLD">      0.00200000</i>
   <i name="RTIME">     -0.10000000</i>
   <i name="WPLASMAI">      0.00000000</i>
   <v name="DFIELD">      0.00000000      0.00000000      0.00000000</v>
   <v name="WPLASMA">      0.00000000      0.00000000      0.00000000      0.00000000      0.00000000      0.00000000      0.00000000      0.00000000      0.00000000</v>
  </separator>
  <separator name="orbital magnetization" >
   <i type="logical" name="NUCIND"> F  </i>
   <v name="MAGPOS">      0.00000000      0.00000000      0.00000000</v>
   <i type="logical" name="LNICSALL"> T  </i>
   <i type="logical" name="ORBITALMAG"> F  </i>
   <i type="logical" name="LMAGBLOCH"> F  </i>
   <i type="logical" name="LCHIMAG"> F  </i>
   <i type="logical" name="LGAUGE"> T  </i>
   <i type="int" name="MAGATOM">     0</i>
   <v name="MAGDIPOL">      0.00000000      0.00000000      0.00000000</v>
   <v name="AVECCONST">      0.00000000      0.00000000      0.00000000</v>
  </separator>
  <separator name="response functions" >
   <i type="logical" name="LADDER"> F  </i>
   <i type="logical" name="LRPAFORCE"> F  </i>
   <i type="logical" name="LFXC"> F  </i>
   <i type="logical" name="LHARTREE"> T  </i>
   <i type="int" name="IBSE">     0</i>
   <v type="int" name="KPOINT">    -1     0     0     0</v>
   <i type="logical" name="LTCTE"> F  </i>
   <i type="logical" name="LTETE"> F  </i>
   <i type="logical" name="LTRIPLET"> F  </i>
   <i type="logical" name="LFXCEPS"> F  </i>
   <i type="logical" name="LFXHEG"> F  </i>
   <i type="int" name="NATURALO">     2</i>
   <i type="logical" name="L2ORDER"> F  </i>
   <i type="logical" name="LMP2LT"> F  </i>
   <i type="logical" name="LUSEW"> F  </i>
   <i name="ENCUTGW">     -2.00000000</i>
   <i name="ENCUTGWSOFT">     -2.00000000</i>
   <i name="ENCUTLF">     -1.00000000</i>
   <i type="int" name="LMAXMP2">    -1</i>
   <i name="SCISSOR">      0.00000000</i>
   <i type="int" name="NOMEGA">     0</i>
   <i type="int" name="NOMEGAR">     0</i>
   <i type="int" name="NBANDSGW">    -1</i>
   <i type="int" name="NBANDSO">    -1</i>
   <i type="int" name="NBANDSV">    -1</i>
   <i type="int" name="NELM">   200</i>
   <i type="int" name="NELMHF">     1</i>
   <i type="int" name="DIM">     3</i>
   <i type="int" name="ANTIRES">     0</i>
   <i name="OMEGAMAX">    -30.00000000</i>
   <i name="OMEGAMIN">    -30.00000000</i>
   <i name="OMEGATL">   -200.00000000</i>
   <i type="int" name="OMEGAGRID">   140</i>
   <i name="CSHIFT">     -0.10000000</i>
   <i type="logical" name="SELFENERGY"> F  </i>
   <i type="logical" name="LSPECTRAL"> F  </i>
   <i type="logical" name="LSPECTRALGW"> F  </i>
   <i type="logical" name="LSINGLES"> F  </i>
   <i type="logical" name="LFERMIGW"> F  </i>
   <i type="logical" name="ODDONLYGW"> F  </i>
   <i type="logical" name="EVENONLYGW"> F  </i>
   <i type="int" name="NKREDLFX">     1</i>
   <i type="int" name="NKREDLFY">     1</i>
   <i type="int" name="NKREDLFZ">     1</i>
   <i type="int" name="MAXMEM">  2800</i>
   <i type="int" name="TELESCOPE">     0</i>
   <i type="int" name="TAUPAR">     1</i>
   <i type="int" name="OMEGAPAR">    -1</i>
   <i name="LAMBDA">      1.00000000</i>
  </separator>
  <separator name="External order field" >
   <i name="OFIELD_KAPPA">      0.00000000</i>
   <v name="OFIELD_K">      0.00000000      0.00000000      0.00000000</v>
   <i name="OFIELD_Q6_NEAR">      0.00000000</i>
   <i name="OFIELD_Q6_FAR">      0.00000000</i>
   <i name="OFIELD_A">      0.00000000</i>
  </separator>
  <separator name="solvation model" >
   <i type="logical" name="LSOL"> F  </i>
  </separator>
 </parameters>
 <atominfo>
  <atoms>     111 </atoms>
  <types>       4 </types>
  <array name="atoms" >
   <dimension dim="1">ion</dimension>
   <field type="string">element</field>
   <field type="int">atomtype</field>
   <set>
    <rc><c>H </c><c>   1</c></rc>
    <rc><c>H </c><c>   1</c></rc>
    <rc><c>H </c><c>   1</c></rc>
    <rc><c>H </c><c>   1</c></rc>
    <rc><c>H </c><c>   1</c></rc>
    <rc><c>H </c><c>   1</c></rc>
    <rc><c>H </c><c>   1</c></rc>
    <rc><c>H </c><c>   1</c></rc>
    <rc><c>H </c><c>   1</c></rc>
    <rc><c>H </c><c>   1</c></rc>
    <rc><c>H </c><c>   1</c></rc>
    <rc><c>H </c><c>   1</c></rc>
    <rc><c>H </c><c>   1</c></rc>
    <rc><c>H </c><c>   1</c></rc>
    <rc><c>H </c><c>   1</c></rc>
    <rc><c>H </c><c>   1</c></rc>
    <rc><c>H </c><c>   1</c></rc>
    <rc><c>H </c><c>   1</c></rc>
    <rc><c>H </c><c>   1</c></rc>
    <rc><c>H </c><c>   1</c></rc>
    <rc><c>H </c><c>   1</c></rc>
    <rc><c>H </c><c>   1</c></rc>
    <rc><c>H </c><c>   1</c></rc>
    <rc><c>H </c><c>   1</c></rc>
    <rc><c>H </c><c>   1</c></rc>
    <rc><c>H </c><c>   1</c></rc>
    <rc><c>H </c><c>   1</c></rc>
    <rc><c>H </c><c>   1</c></rc>
    <rc><c>H </c><c>   1</c></rc>
    <rc><c>H </c><c>   1</c></rc>
    <rc><c>H </c><c>   1</c></rc>
    <rc><c>H </c><c>   1</c></rc>
    <rc><c>H </c><c>   1</c></rc>
    <rc><c>H </c><c>   1</c></rc>
    <rc><c>H </c><c>   1</c></rc>
    <rc><c>H </c><c>   1</c></rc>
    <rc><c>C </c><c>   2</c></rc>
    <rc><c>C </c><c>   2</c></rc>
    <rc><c>C </c><c>   2</c></rc>
    <rc><c>C </c><c>   2</c></rc>
    <rc><c>C </c><c>   2</c></rc>
    <rc><c>C </c><c>   2</c></rc>
    <rc><c>C </c><c>   2</c></rc>
    <rc><c>C </c><c>   2</c></rc>
    <rc><c>C </c><c>   2</c></rc>
    <rc><c>C </c><c>   2</c></rc>
    <rc><c>C </c><c>   2</c></rc>
    <rc><c>C </c><c>   2</c></rc>
    <rc><c>C </c><c>   2</c></rc>
    <rc><c>C </c><c>   2</c></rc>
    <rc><c>C </c><c>   2</c></rc>
    <rc><c>C </c><c>   2</c></rc>
    <rc><c>C </c><c>   2</c></rc>
    <rc><c>C </c><c>   2</c></rc>
    <rc><c>C </c><c>   2</c></rc>
    <rc><c>C </c><c>   2</c></rc>
    <rc><c>C </c><c>   2</c></rc>
    <rc><c>C </c><c>   2</c></rc>
    <rc><c>C </c><c>   2</c></rc>
    <rc><c>C </c><c>   2</c></rc>
    <rc><c>C </c><c>   2</c></rc>
    <rc><c>C </c><c>   2</c></rc>
    <rc><c>C </c><c>   2</c></rc>
    <rc><c>C </c><c>   2</c></rc>
    <rc><c>C </c><c>   2</c></rc>
    <rc><c>C </c><c>   2</c></rc>
    <rc><c>C </c><c>   2</c></rc>
    <rc><c>C </c><c>   2</c></rc>
    <rc><c>C </c><c>   2</c></rc>
    <rc><c>C </c><c>   2</c></rc>
    <rc><c>C </c><c>   2</c></rc>
    <rc><c>C </c><c>   2</c></rc>
    <rc><c>C </c><c>   2</c></rc>
    <rc><c>C </c><c>   2</c></rc>
    <rc><c>C </c><c>   2</c></rc>
    <rc><c>C </c><c>   2</c></rc>
    <rc><c>C </c><c>   2</c></rc>
    <rc><c>C </c><c>   2</c></rc>
    <rc><c>C </c><c>   2</c></rc>
    <rc><c>C </c><c>   2</c></rc>
    <rc><c>C </c><c>   2</c></rc>
    <rc><c>C </c><c>   2</c></rc>
    <rc><c>C </c><c>   2</c></rc>
    <rc><c>C </c><c>   2</c></rc>
    <rc><c>C </c><c>   2</c></rc>
    <rc><c>C </c><c>   2</c></rc>
    <rc><c>C </c><c>   2</c></rc>
    <rc><c>C </c><c>   2</c></rc>
    <rc><c>C </c><c>   2</c></rc>
    <rc><c>C </c><c>   2</c></rc>
    <rc><c>C </c><c>   2</c></rc>
    <rc><c>C </c><c>   2</c></rc>
    <rc><c>C </c><c>   2</c></rc>
    <rc><c>C </c><c>   2</c></rc>
    <rc><c>C </c><c>   2</c></rc>
    <rc><c>C </c><c>   2</c></rc>
    <rc><c>C </c><c>   2</c></rc>
    <rc><c>C </c><c>   2</c></rc>
    <rc><c>C </c><c>   2</c></rc>
    <rc><c>O </c><c>   3</c></rc>
    <rc><c>O </c><c>   3</c></rc>
    <rc><c>O </c><c>   3</c></rc>
    <rc><c>O </c><c>   3</c></rc>
    <rc><c>O </c><c>   3</c></rc>
    <rc><c>O </c><c>   3</c></rc>
    <rc><c>N </c><c>   4</c></rc>
    <rc><c>N </c><c>   4</c></rc>
    <rc><c>N </c><c>   4</c></rc>
    <rc><c>N </c><c>   4</c></rc>
    <rc><c>N </c><c>   4</c></rc>
    <rc><c>N </c><c>   4</c></rc>
   </set>
  </array>
  <array name="atomtypes" >
   <dimension dim="1">type</dimension>
   <field type="int">atomspertype</field>
   <field type="string">element</field>
   <field>mass</field>
   <field>valence</field>
   <field type="string">pseudopotential</field>
   <set>
    <rc><c>  36</c><c>H </c><c>      1.00000000</c><c>      1.00000000</c><c>  PAW_PBE H 15Jun2001                   </c></rc>
    <rc><c>  63</c><c>C </c><c>     12.01100000</c><c>      4.00000000</c><c>  PAW_PBE C 08Apr2002                   </c></rc>
    <rc><c>   6</c><c>O </c><c>     16.00000000</c><c>      6.00000000</c><c>  PAW_PBE O 08Apr2002                   </c></rc>
    <rc><c>   6</c><c>N </c><c>     14.00100000</c><c>      5.00000000</c><c>  PAW_PBE N 08Apr2002                   </c></rc>
   </set>
  </array>
 </atominfo>
 <structure name="initialpos" >
  <crystal>
   <varray name="basis" >
    <v>      29.79309212      -0.00067499       0.00000000 </v>
    <v>     -14.89713067      25.79488898       0.00000000 </v>
    <v>       0.00000000       0.00000000      20.00000000 </v>
   </varray>
   <i name="volume">  15369.98896717 </i>
   <varray name="rec_basis" >
    <v>       0.03356527       0.01938470       0.00000000 </v>
    <v>       0.00000088       0.03876788       0.00000000 </v>
    <v>       0.00000000       0.00000000       0.05000000 </v>
   </varray>
  </crystal>
  <varray name="positions" >
   <v>       0.12204140       0.63245382       0.50833584 </v>
   <v>       0.21642186       0.67995118       0.50285193 </v>
   <v>       0.12201443       0.48781544       0.50784269 </v>
   <v>       0.21639588       0.53474236       0.50233920 </v>
   <v>       0.32641732       0.53477306       0.50227852 </v>
   <v>       0.37389904       0.48784212       0.50768527 </v>
   <v>       0.47160628       0.67999668       0.50316943 </v>
   <v>       0.51851028       0.63250194       0.50859162 </v>
   <v>       0.47166392       0.78994414       0.50265269 </v>
   <v>       0.51862814       0.88435709       0.50807782 </v>
   <v>       0.37405878       0.88443313       0.50827625 </v>
   <v>       0.32651623       0.79000125       0.50278960 </v>
   <v>       0.29025900       0.71618456       0.50170932 </v>
   <v>       0.29021886       0.57237782       0.50219540 </v>
   <v>       0.43401306       0.71615551       0.50180338 </v>
   <v>       0.88769600       0.37081859       0.50523573 </v>
   <v>       0.79320944       0.32325732       0.50340994 </v>
   <v>       0.88774710       0.51536855       0.50522058 </v>
   <v>       0.79325271       0.46843632       0.50320985 </v>
   <v>       0.68319514       0.46845986       0.50311892 </v>
   <v>       0.63560698       0.51535712       0.50515776 </v>
   <v>       0.53807115       0.32325644       0.50317806 </v>
   <v>       0.49112023       0.37076982       0.50504612 </v>
   <v>       0.53806809       0.21328955       0.50307423 </v>
   <v>       0.49105189       0.11878560       0.50543760 </v>
   <v>       0.63549511       0.11866037       0.50546741 </v>
   <v>       0.68313802       0.21315426       0.50311972 </v>
   <v>       0.71940949       0.28704202       0.50272204 </v>
   <v>       0.71944348       0.43084831       0.50290980 </v>
   <v>       0.57565761       0.28706029       0.50264416 </v>
   <v>       0.44827894       0.88824310       0.60866207 </v>
   <v>       0.44800882       0.55791848       0.60885781 </v>
   <v>       0.11786063       0.55827001       0.60888771 </v>
   <v>       0.52540824       0.04221178       0.39985822 </v>
   <v>       0.52421581       0.48063951       0.39943411 </v>
   <v>       0.96439646       0.48074946       0.39947581 </v>
   <v>       0.05710879       0.52770259       0.51146906 </v>
   <v>       0.02694681       0.51293033       0.57061887 </v>
   <v>       0.04720608       0.52332186       0.64262118 </v>
   <v>       0.28316523       0.64073765       0.50149839 </v>
   <v>       0.31129348       0.69512882       0.50134865 </v>
   <v>       0.36567537       0.72323810       0.50146259 </v>
   <v>       0.39192336       0.69511556       0.50140801 </v>
   <v>       0.36564565       0.64073348       0.50156718 </v>
   <v>       0.31127019       0.61446976       0.50155690 </v>
   <v>       0.39459286       0.78099895       0.50288370 </v>
   <v>       0.36866929       0.80965089       0.50407050 </v>
   <v>       0.39546928       0.86356674       0.50720076 </v>
   <v>       0.44984946       0.89141446       0.50947127 </v>
   <v>       0.47634687       0.86353402       0.50708964 </v>
   <v>       0.44918119       0.80961521       0.50398823 </v>
   <v>       0.22540838       0.61184601       0.50289042 </v>
   <v>       0.19677899       0.63779265       0.50413498 </v>
   <v>       0.14287302       0.61101017       0.50728433 </v>
   <v>       0.11498753       0.55661800       0.50950310 </v>
   <v>       0.14284919       0.53010415       0.50700530 </v>
   <v>       0.19675779       0.55725102       0.50386615 </v>
   <v>       0.39452142       0.61186410       0.50297827 </v>
   <v>       0.36856578       0.55727338       0.50384364 </v>
   <v>       0.39532835       0.53013223       0.50692744 </v>
   <v>       0.44969856       0.55666586       0.50950075 </v>
   <v>       0.47623066       0.61105912       0.50743971 </v>
   <v>       0.44910280       0.63783340       0.50432797 </v>
   <v>       0.72650594       0.36248627       0.50265192 </v>
   <v>       0.69837189       0.30809756       0.50256259 </v>
   <v>       0.64399285       0.27996942       0.50253497 </v>
   <v>       0.61775199       0.30810734       0.50250871 </v>
   <v>       0.64400884       0.36249553       0.50258617 </v>
   <v>       0.69838876       0.38874792       0.50265443 </v>
   <v>       0.61508276       0.22218207       0.50289474 </v>
   <v>       0.64095770       0.19348718       0.50329661 </v>
   <v>       0.61404820       0.13950221       0.50445521 </v>
   <v>       0.55980156       0.11179344       0.50530959 </v>
   <v>       0.53334177       0.13957033       0.50445259 </v>
   <v>       0.56050842       0.19355299       0.50327997 </v>
   <v>       0.78427739       0.39137162       0.50299686 </v>
   <v>       0.81291497       0.36544226       0.50337094 </v>
   <v>       0.86688660       0.39229648       0.50425687 </v>
   <v>       0.89462887       0.44654315       0.50492570 </v>
   <v>       0.86691928       0.47307142       0.50424859 </v>
   <v>       0.81294616       0.44595292       0.50329831 </v>
   <v>       0.61511705       0.39137866       0.50288692 </v>
   <v>       0.64101394       0.44596019       0.50321293 </v>
   <v>       0.61414095       0.47306269       0.50418696 </v>
   <v>       0.55989864       0.44653518       0.50486135 </v>
   <v>       0.53341061       0.39228520       0.50411499 </v>
   <v>       0.56054452       0.36544457       0.50320988 </v>
   <v>       0.47875102       0.94928748       0.51157337 </v>
   <v>       0.53096921       0.05413052       0.50783007 </v>
   <v>       0.49363559       0.97931993       0.57083221 </v>
   <v>       0.48362061       0.95882290       0.64274438 </v>
   <v>       0.47860825       0.52772670       0.51143981 </v>
   <v>       0.53104939       0.47533910       0.50735762 </v>
   <v>       0.49407615       0.51305466       0.57058978 </v>
   <v>       0.48430285       0.52356018       0.64259321 </v>
   <v>       0.95227073       0.47533581       0.50740507 </v>
   <v>       0.51611944       0.02396642       0.44921317 </v>
   <v>       0.51546700       0.49002852       0.44884693 </v>
   <v>       0.98254063       0.49011144       0.44888773 </v>
   <v>       0.01817344       0.50911149       0.69024777 </v>
   <v>       0.09938951       0.54927581       0.65194257 </v>
   <v>       0.49822209       0.98769733       0.69053898 </v>
   <v>       0.45760467       0.90659278       0.65180637 </v>
   <v>       0.49951171       0.50973794       0.69022235 </v>
   <v>       0.45766612       0.54911242       0.65192378 </v>
   <v>       0.03420016       0.51596506       0.45086317 </v>
   <v>       0.51945148       0.03133070       0.56779354 </v>
   <v>       0.52009133       0.48708943       0.56736300 </v>
   <v>       0.97495189       0.48698454       0.56742749 </v>
   <v>       0.49031981       0.97229328       0.45102895 </v>
   <v>       0.48964603       0.51586760       0.45084234 </v>
  </varray>
 </structure>
 <calculation>
  <scstep>
   <time name="dav">  631.90  638.20</time>
   <time name="total">  632.16  638.48</time>
   <energy>
    <i name="alphaZ">     37.99715827 </i>
    <i name="ewald">  42924.91171968 </i>
    <i name="hartreedc"> -54251.95275581 </i>
    <i name="XCdc">   1252.71944431 </i>
    <i name="pawpsdc">  32357.48655033 </i>
    <i name="pawaedc"> -32421.50146964 </i>
    <i name="eentropy">     -0.00000000 </i>
    <i name="bandstr">  -4587.24962888 </i>
    <i name="atom">  13901.20974529 </i>
    <i name="e_fr_energy">   -786.37923645 </i>
    <i name="e_wo_entrp">   -786.37923645 </i>
    <i name="e_0_energy">   -786.37923645 </i>
   </energy>
  </scstep>
  <scstep>
   <time name="dav">  729.66  736.88</time>
   <time name="total">  729.66  736.88</time>
   <energy>
    <i name="e_fr_energy">   -786.80090702 </i>
    <i name="e_wo_entrp">   -786.80090702 </i>
    <i name="e_0_energy">   -786.80090702 </i>
   </energy>
  </scstep>
  <scstep>
   <time name="dav">  757.64  765.39</time>
   <time name="total">  757.64  765.40</time>
   <energy>
    <i name="e_fr_energy">   -786.81223201 </i>
    <i name="e_wo_entrp">   -786.81223201 </i>
    <i name="e_0_energy">   -786.81223201 </i>
   </energy>
  </scstep>
  <scstep>
   <time name="dav">  719.73  727.27</time>
   <time name="total">  719.73  727.27</time>
   <energy>
    <i name="e_fr_energy">   -786.81250048 </i>
    <i name="e_wo_entrp">   -786.81250048 </i>
    <i name="e_0_energy">   -786.81250048 </i>
   </energy>
  </scstep>
  <scstep>
   <time name="dav">  691.34  698.57</time>
   <time name="total">  691.34  698.57</time>
   <energy>
    <i name="e_fr_energy">   -786.81251316 </i>
    <i name="e_wo_entrp">   -786.81251316 </i>
    <i name="e_0_energy">   -786.81251316 </i>
   </energy>
  </scstep>
  <scstep>
   <time name="dav">  529.67  535.21</time>
   <time name="total">  529.67  535.21</time>
   <energy>
    <i name="alphaZ">     37.99715827 </i>
    <i name="ewald">  42924.91171968 </i>
    <i name="hartreedc"> -54251.95275581 </i>
    <i name="XCdc">   1252.71944431 </i>
    <i name="pawpsdc">  32357.48655033 </i>
    <i name="pawaedc"> -32421.50146964 </i>
    <i name="eentropy">     -0.00000000 </i>
    <i name="bandstr">  -4587.68290597 </i>
    <i name="atom">  13901.20974529 </i>
    <i name="e_fr_energy">   -786.81251354 </i>
    <i name="e_wo_entrp">   -786.81251354 </i>
    <i name="e_0_energy">   -786.81251354 </i>
   </energy>
  </scstep>
  <structure>
   <crystal>
    <varray name="basis" >
     <v>      29.79309212      -0.00067499       0.00000000 </v>
     <v>     -14.89713067      25.79488898       0.00000000 </v>
     <v>       0.00000000       0.00000000      20.00000000 </v>
    </varray>
    <i name="volume">  15369.98896717 </i>
    <varray name="rec_basis" >
     <v>       0.03356527       0.01938470       0.00000000 </v>
     <v>       0.00000088       0.03876788       0.00000000 </v>
     <v>       0.00000000       0.00000000       0.05000000 </v>
    </varray>
   </crystal>
   <varray name="positions" >
    <v>       0.12204140       0.63245382       0.50833584 </v>
    <v>       0.21642186       0.67995118       0.50285193 </v>
    <v>       0.12201443       0.48781544       0.50784269 </v>
    <v>       0.21639588       0.53474236       0.50233920 </v>
    <v>       0.32641732       0.53477306       0.50227852 </v>
    <v>       0.37389904       0.48784212       0.50768527 </v>
    <v>       0.47160628       0.67999668       0.50316943 </v>
    <v>       0.51851028       0.63250194       0.50859162 </v>
    <v>       0.47166392       0.78994414       0.50265269 </v>
    <v>       0.51862814       0.88435709       0.50807782 </v>
    <v>       0.37405878       0.88443313       0.50827625 </v>
    <v>       0.32651623       0.79000125       0.50278960 </v>
    <v>       0.29025900       0.71618456       0.50170932 </v>
    <v>       0.29021886       0.57237782       0.50219540 </v>
    <v>       0.43401306       0.71615551       0.50180338 </v>
    <v>       0.88769600       0.37081859       0.50523573 </v>
    <v>       0.79320944       0.32325732       0.50340994 </v>
    <v>       0.88774710       0.51536855       0.50522058 </v>
    <v>       0.79325271       0.46843632       0.50320985 </v>
    <v>       0.68319514       0.46845986       0.50311892 </v>
    <v>       0.63560698       0.51535712       0.50515776 </v>
    <v>       0.53807115       0.32325644       0.50317806 </v>
    <v>       0.49112023       0.37076982       0.50504612 </v>
    <v>       0.53806809       0.21328955       0.50307423 </v>
    <v>       0.49105189       0.11878560       0.50543760 </v>
    <v>       0.63549511       0.11866037       0.50546741 </v>
    <v>       0.68313802       0.21315426       0.50311972 </v>
    <v>       0.71940949       0.28704202       0.50272204 </v>
    <v>       0.71944348       0.43084831       0.50290980 </v>
    <v>       0.57565761       0.28706029       0.50264416 </v>
    <v>       0.44827894       0.88824310       0.60866207 </v>
    <v>       0.44800882       0.55791848       0.60885781 </v>
    <v>       0.11786063       0.55827001       0.60888771 </v>
    <v>       0.52540824       0.04221178       0.39985822 </v>
    <v>       0.52421581       0.48063951       0.39943411 </v>
    <v>       0.96439646       0.48074946       0.39947581 </v>
    <v>       0.05710879       0.52770259       0.51146906 </v>
    <v>       0.02694681       0.51293033       0.57061887 </v>
    <v>       0.04720608       0.52332186       0.64262118 </v>
    <v>       0.28316523       0.64073765       0.50149839 </v>
    <v>       0.31129348       0.69512882       0.50134865 </v>
    <v>       0.36567537       0.72323810       0.50146259 </v>
    <v>       0.39192336       0.69511556       0.50140801 </v>
    <v>       0.36564565       0.64073348       0.50156718 </v>
    <v>       0.31127019       0.61446976       0.50155690 </v>
    <v>       0.39459286       0.78099895       0.50288370 </v>
    <v>       0.36866929       0.80965089       0.50407050 </v>
    <v>       0.39546928       0.86356674       0.50720076 </v>
    <v>       0.44984946       0.89141446       0.50947127 </v>
    <v>       0.47634687       0.86353402       0.50708964 </v>
    <v>       0.44918119       0.80961521       0.50398823 </v>
    <v>       0.22540838       0.61184601       0.50289042 </v>
    <v>       0.19677899       0.63779265       0.50413498 </v>
    <v>       0.14287302       0.61101017       0.50728433 </v>
    <v>       0.11498753       0.55661800       0.50950310 </v>
    <v>       0.14284919       0.53010415       0.50700530 </v>
    <v>       0.19675779       0.55725102       0.50386615 </v>
    <v>       0.39452142       0.61186410       0.50297827 </v>
    <v>       0.36856578       0.55727338       0.50384364 </v>
    <v>       0.39532835       0.53013223       0.50692744 </v>
    <v>       0.44969856       0.55666586       0.50950075 </v>
    <v>       0.47623066       0.61105912       0.50743971 </v>
    <v>       0.44910280       0.63783340       0.50432797 </v>
    <v>       0.72650594       0.36248627       0.50265192 </v>
    <v>       0.69837189       0.30809756       0.50256259 </v>
    <v>       0.64399285       0.27996942       0.50253497 </v>
    <v>       0.61775199       0.30810734       0.50250871 </v>
    <v>       0.64400884       0.36249553       0.50258617 </v>
    <v>       0.69838876       0.38874792       0.50265443 </v>
    <v>       0.61508276       0.22218207       0.50289474 </v>
    <v>       0.64095770       0.19348718       0.50329661 </v>
    <v>       0.61404820       0.13950221       0.50445521 </v>
    <v>       0.55980156       0.11179344       0.50530959 </v>
    <v>       0.53334177       0.13957033       0.50445259 </v>
    <v>       0.56050842       0.19355299       0.50327997 </v>
    <v>       0.78427739       0.39137162       0.50299686 </v>
    <v>       0.81291497       0.36544226       0.50337094 </v>
    <v>       0.86688660       0.39229648       0.50425687 </v>
    <v>       0.89462887       0.44654315       0.50492570 </v>
    <v>       0.86691928       0.47307142       0.50424859 </v>
    <v>       0.81294616       0.44595292       0.50329831 </v>
    <v>       0.61511705       0.39137866       0.50288692 </v>
    <v>       0.64101394       0.44596019       0.50321293 </v>
    <v>       0.61414095       0.47306269       0.50418696 </v>
    <v>       0.55989864       0.44653518       0.50486135 </v>
    <v>       0.53341061       0.39228520       0.50411499 </v>
    <v>       0.56054452       0.36544457       0.50320988 </v>
    <v>       0.47875102       0.94928748       0.51157337 </v>
    <v>       0.53096921       0.05413052       0.50783007 </v>
    <v>       0.49363559       0.97931993       0.57083221 </v>
    <v>       0.48362061       0.95882290       0.64274438 </v>
    <v>       0.47860825       0.52772670       0.51143981 </v>
    <v>       0.53104939       0.47533910       0.50735762 </v>
    <v>       0.49407615       0.51305466       0.57058978 </v>
    <v>       0.48430285       0.52356018       0.64259321 </v>
    <v>       0.95227073       0.47533581       0.50740507 </v>
    <v>       0.51611944       0.02396642       0.44921317 </v>
    <v>       0.51546700       0.49002852       0.44884693 </v>
    <v>       0.98254063       0.49011144       0.44888773 </v>
    <v>       0.01817344       0.50911149       0.69024777 </v>
    <v>       0.09938951       0.54927581       0.65194257 </v>
    <v>       0.49822209       0.98769733       0.69053898 </v>
    <v>       0.45760467       0.90659278       0.65180637 </v>
    <v>       0.49951171       0.50973794       0.69022235 </v>
    <v>       0.45766612       0.54911242       0.65192378 </v>
    <v>       0.03420016       0.51596506       0.45086317 </v>
    <v>       0.51945148       0.03133070       0.56779354 </v>
    <v>       0.52009133       0.48708943       0.56736300 </v>
    <v>       0.97495189       0.48698454       0.56742749 </v>
    <v>       0.49031981       0.97229328       0.45102895 </v>
    <v>       0.48964603       0.51586760       0.45084234 </v>
   </varray>
  </structure>
  <varray name="forces" >
   <v>       0.00207175       0.00000292       0.00146834 </v>
   <v>      -0.00107657       0.00291883       0.00233920 </v>
   <v>      -0.00068609       0.00247176       0.00058777 </v>
   <v>       0.00085938      -0.00209907       0.00090427 </v>
   <v>      -0.00030483      -0.00339913      -0.00026601 </v>
   <v>       0.00076804       0.00223616      -0.00128089 </v>
   <v>       0.00212263       0.00171114       0.00232457 </v>
   <v>      -0.00202909      -0.00162464       0.00152843 </v>
   <v>       0.00027077       0.00198669      -0.00101427 </v>
   <v>      -0.00274260       0.00104295       0.00036720 </v>
   <v>       0.00205499      -0.00039984       0.00083675 </v>
   <v>      -0.00153066       0.00139576      -0.00047142 </v>
   <v>       0.00166628      -0.00114415       0.00008268 </v>
   <v>       0.00009736      -0.00309796       0.00072222 </v>
   <v>       0.00051839       0.00095301       0.00042708 </v>
   <v>      -0.00215075       0.00063803      -0.00104738 </v>
   <v>      -0.00006519      -0.00050741      -0.00337125 </v>
   <v>       0.00078902      -0.00137554       0.00059844 </v>
   <v>       0.00124370       0.00155363      -0.00171039 </v>
   <v>      -0.00125596       0.00023016      -0.00148103 </v>
   <v>      -0.00012617       0.00092745       0.00085029 </v>
   <v>      -0.00060054       0.00195089      -0.00256188 </v>
   <v>       0.00017737       0.00106626       0.00000672 </v>
   <v>       0.00092153      -0.00125152       0.00023645 </v>
   <v>       0.00208184       0.00116316       0.00096719 </v>
   <v>      -0.00223004       0.00064576       0.00063712 </v>
   <v>      -0.00138297      -0.00154443      -0.00006787 </v>
   <v>       0.00133630       0.00002669      -0.00256721 </v>
   <v>      -0.00037140       0.00067357      -0.00129224 </v>
   <v>      -0.00011460      -0.00011240      -0.00177700 </v>
   <v>      -0.00046993      -0.00074254       0.00049584 </v>
   <v>       0.00003709      -0.00112688       0.00393672 </v>
   <v>       0.00035598       0.00122754       0.00089965 </v>
   <v>      -0.00138697      -0.00076458       0.00196160 </v>
   <v>      -0.00122919      -0.00154527      -0.00069277 </v>
   <v>       0.00078633       0.00047985       0.00108475 </v>
   <v>       0.00059844       0.00109249       0.00404962 </v>
   <v>      -0.00041608      -0.00130472      -0.00229278 </v>
   <v>      -0.00028897       0.00075269      -0.00519535 </v>
   <v>       0.00186038       0.00254939       0.00043337 </v>
   <v>      -0.00109755       0.00113837       0.00128530 </v>
   <v>      -0.00069157      -0.00262929       0.00060235 </v>
   <v>       0.00004428       0.00215408       0.00150320 </v>
   <v>      -0.00107256       0.00053903      -0.00141782 </v>
   <v>       0.00015514       0.00015069       0.00144897 </v>
   <v>       0.00064083       0.00187372      -0.00006982 </v>
   <v>       0.00109021       0.00124694       0.00069409 </v>
   <v>       0.00152817      -0.00021739       0.00140326 </v>
   <v>       0.00027932      -0.00184735      -0.00196766 </v>
   <v>      -0.00199614       0.00044385       0.00062445 </v>
   <v>      -0.00201598       0.00129681      -0.00041874 </v>
   <v>      -0.00246474       0.00036723       0.00049385 </v>
   <v>      -0.00187250      -0.00189067       0.00080823 </v>
   <v>      -0.00084261      -0.00197159       0.00043872 </v>
   <v>       0.00138090       0.00058254      -0.00099345 </v>
   <v>      -0.00357658       0.00150315      -0.00009694 </v>
   <v>      -0.00262054      -0.00045785       0.00027195 </v>
   <v>       0.00162086      -0.00042733       0.00083679 </v>
   <v>       0.00217757      -0.00141656       0.00082399 </v>
   <v>       0.00160536       0.00150740      -0.00067767 </v>
   <v>      -0.00032864       0.00256978      -0.00172182 </v>
   <v>       0.00028124      -0.00114928      -0.00004472 </v>
   <v>       0.00113642      -0.00185605       0.00152024 </v>
   <v>      -0.00158555      -0.00022501      -0.00399157 </v>
   <v>      -0.00002612      -0.00043241      -0.00051353 </v>
   <v>      -0.00033605      -0.00006341      -0.00295803 </v>
   <v>       0.00030763      -0.00061888       0.00013774 </v>
   <v>       0.00050041       0.00106431      -0.00257478 </v>
   <v>      -0.00019851       0.00194272      -0.00093826 </v>
   <v>       0.00060792      -0.00233512      -0.00232237 </v>
   <v>      -0.00268432      -0.00228760       0.00005993 </v>
   <v>      -0.00227698      -0.00149075       0.00063666 </v>
   <v>       0.00071630       0.00144520       0.00125921 </v>
   <v>       0.00237967      -0.00109361       0.00080673 </v>
   <v>       0.00170536      -0.00249533       0.00040036 </v>
   <v>       0.00311850       0.00170169      -0.00371505 </v>
   <v>       0.00149964       0.00074732      -0.00140817 </v>
   <v>       0.00031263       0.00186451      -0.00040903 </v>
   <v>       0.00104855       0.00058986      -0.00190924 </v>
   <v>       0.00061974      -0.00185512       0.00037754 </v>
   <v>       0.00095195       0.00036439      -0.00104165 </v>
   <v>      -0.00443239       0.00221131      -0.00311633 </v>
   <v>      -0.00044753      -0.00064556      -0.00138416 </v>
   <v>       0.00050560      -0.00138438       0.00111518 </v>
   <v>      -0.00039890       0.00020716      -0.00160150 </v>
   <v>       0.00251691       0.00069544       0.00007323 </v>
   <v>       0.00014390       0.00125927      -0.00211468 </v>
   <v>       0.00144909      -0.00384813       0.00045376 </v>
   <v>       0.00128723       0.00412786       0.00052557 </v>
   <v>       0.00165139      -0.00100113      -0.00601920 </v>
   <v>      -0.00051921       0.00154999      -0.00234760 </v>
   <v>       0.00152195       0.00253572       0.00621395 </v>
   <v>       0.00069406      -0.00158284       0.00230752 </v>
   <v>       0.00041830      -0.00227866      -0.00295034 </v>
   <v>       0.00579766      -0.00196548       0.00635802 </v>
   <v>      -0.00114129      -0.00056337       0.00270768 </v>
   <v>       0.00164066      -0.00118344       0.00274398 </v>
   <v>       0.00531853       0.00062319       0.00217613 </v>
   <v>      -0.00396429       0.00040369       0.00252629 </v>
   <v>       0.00006970       0.00113503      -0.00079999 </v>
   <v>      -0.00134177       0.00179974       0.00051167 </v>
   <v>      -0.00445006      -0.00461435      -0.00072276 </v>
   <v>      -0.00151159      -0.00317735      -0.00024524 </v>
   <v>      -0.00337113       0.00001051      -0.00824801 </v>
   <v>       0.00064405       0.00171620      -0.00423999 </v>
   <v>       0.00214149      -0.00285315       0.00318057 </v>
   <v>      -0.00011120       0.00161182       0.00577745 </v>
   <v>       0.00159394       0.00214176       0.00757751 </v>
   <v>      -0.00437719      -0.00312261      -0.00057773 </v>
   <v>       0.00166395       0.00148113       0.00348271 </v>
   <v>      -0.00317250      -0.00127908      -0.00126344 </v>
  </varray>
  <varray name="stress" >
   <v>      -0.00630939      -0.00001090      -0.00093630 </v>
   <v>      -0.00001090      -0.00487100       0.00883067 </v>
   <v>      -0.00093630       0.00883067      -0.16123657 </v>
  </varray>
  <energy>
   <i name="e_fr_energy">   -789.02212985 </i>
   <i name="e_wo_entrp">   -789.02212985 </i>
   <i name="e_0_energy">     -0.00000000 </i>
  </energy>
  <time name="totalsc"> 4808.84 4861.64</time>
  <eigenvalues>
   <array>
    <dimension dim="1">band</dimension>
    <dimension dim="2">kpoint</dimension>
    <dimension dim="3">spin</dimension>
    <field>eigene</field>
    <field>occ</field>
    <set>
     <set comment="spin 1">
      <set comment="kpoint 1">
       <r>  -27.2196    1.0000 </r>
       <r>  -27.2173    1.0000 </r>
       <r>  -27.2171    1.0000 </r>
       <r>  -25.1316    1.0000 </r>
       <r>  -25.1307    1.0000 </r>
       <r>  -25.1298    1.0000 </r>
       <r>  -24.8015    1.0000 </r>
       <r>  -24.8005    1.0000 </r>
       <r>  -24.8003    1.0000 </r>
       <r>  -22.9553    1.0000 </r>
       <r>  -22.9542    1.0000 </r>
       <r>  -22.9537    1.0000 </r>
       <r>  -22.3291    1.0000 </r>
       <r>  -21.9879    1.0000 </r>
       <r>  -21.9870    1.0000 </r>
       <r>  -21.8533    1.0000 </r>
       <r>  -21.5749    1.0000 </r>
       <r>  -21.5031    1.0000 </r>
       <r>  -21.5026    1.0000 </r>
       <r>  -21.1081    1.0000 </r>
       <r>  -20.4812    1.0000 </r>
       <r>  -20.4802    1.0000 </r>
       <r>  -20.1121    1.0000 </r>
       <r>  -19.9465    1.0000 </r>
       <r>  -19.9461    1.0000 </r>
       <r>  -19.3010    1.0000 </r>
       <r>  -19.3006    1.0000 </r>
       <r>  -19.1730    1.0000 </r>
       <r>  -19.0312    1.0000 </r>
       <r>  -19.0302    1.0000 </r>
       <r>  -19.0094    1.0000 </r>
       <r>  -18.5591    1.0000 </r>
       <r>  -18.5584    1.0000 </r>
       <r>  -18.5079    1.0000 </r>
       <r>  -18.3764    1.0000 </r>
       <r>  -18.3761    1.0000 </r>
       <r>  -18.2780    1.0000 </r>
       <r>  -17.7378    1.0000 </r>
       <r>  -17.7373    1.0000 </r>
       <r>  -16.9868    1.0000 </r>
       <r>  -16.9793    1.0000 </r>
       <r>  -16.9790    1.0000 </r>
       <r>  -16.6896    1.0000 </r>
       <r>  -16.6878    1.0000 </r>
       <r>  -16.6864    1.0000 </r>
       <r>  -16.0458    1.0000 </r>
       <r>  -16.0453    1.0000 </r>
       <r>  -15.5958    1.0000 </r>
       <r>  -15.5946    1.0000 </r>
       <r>  -15.5655    1.0000 </r>
       <r>  -15.4477    1.0000 </r>
       <r>  -15.2238    1.0000 </r>
       <r>  -15.2232    1.0000 </r>
       <r>  -15.0833    1.0000 </r>
       <r>  -15.0023    1.0000 </r>
       <r>  -14.9995    1.0000 </r>
       <r>  -14.9903    1.0000 </r>
       <r>  -14.8618    1.0000 </r>
       <r>  -14.7702    1.0000 </r>
       <r>  -14.7698    1.0000 </r>
       <r>  -14.4221    1.0000 </r>
       <r>  -14.4218    1.0000 </r>
       <r>  -14.0019    1.0000 </r>
       <r>  -14.0017    1.0000 </r>
       <r>  -13.8923    1.0000 </r>
       <r>  -13.6175    1.0000 </r>
       <r>  -13.6171    1.0000 </r>
       <r>  -13.6159    1.0000 </r>
       <r>  -13.3037    1.0000 </r>
       <r>  -13.2983    1.0000 </r>
       <r>  -13.2976    1.0000 </r>
       <r>  -13.1830    1.0000 </r>
       <r>  -13.1819    1.0000 </r>
       <r>  -13.1813    1.0000 </r>
       <r>  -12.6502    1.0000 </r>
       <r>  -12.4799    1.0000 </r>
       <r>  -12.4230    1.0000 </r>
       <r>  -12.3284    1.0000 </r>
       <r>  -12.3279    1.0000 </r>
       <r>  -12.0318    1.0000 </r>
       <r>  -11.9519    1.0000 </r>
       <r>  -11.9244    1.0000 </r>
       <r>  -11.9234    1.0000 </r>
       <r>  -11.7432    1.0000 </r>
       <r>  -11.6498    1.0000 </r>
       <r>  -11.6487    1.0000 </r>
       <r>  -11.3640    1.0000 </r>
       <r>  -11.3638    1.0000 </r>
       <r>  -11.3009    1.0000 </r>
       <r>  -11.3005    1.0000 </r>
       <r>  -11.1156    1.0000 </r>
       <r>  -11.0231    1.0000 </r>
       <r>  -11.0227    1.0000 </r>
       <r>  -10.9566    1.0000 </r>
       <r>  -10.8647    1.0000 </r>
       <r>  -10.8638    1.0000 </r>
       <r>  -10.7597    1.0000 </r>
       <r>  -10.7594    1.0000 </r>
       <r>  -10.7336    1.0000 </r>
       <r>  -10.6016    1.0000 </r>
       <r>  -10.5616    1.0000 </r>
       <r>  -10.5613    1.0000 </r>
       <r>  -10.5224    1.0000 </r>
       <r>  -10.3408    1.0000 </r>
       <r>  -10.3357    1.0000 </r>
       <r>  -10.3197    1.0000 </r>
       <r>  -10.3187    1.0000 </r>
       <r>  -10.2646    1.0000 </r>
       <r>  -10.2033    1.0000 </r>
       <r>  -10.2004    1.0000 </r>
       <r>  -10.1997    1.0000 </r>
       <r>  -10.1924    1.0000 </r>
       <r>  -10.1369    1.0000 </r>
       <r>  -10.1353    1.0000 </r>
       <r>  -10.0271    1.0000 </r>
       <r>  -10.0258    1.0000 </r>
       <r>   -9.9218    1.0000 </r>
       <r>   -9.8868    1.0000 </r>
       <r>   -9.8855    1.0000 </r>
       <r>   -9.8511    1.0000 </r>
       <r>   -9.4601    1.0000 </r>
       <r>   -9.4084    1.0000 </r>
       <r>   -9.4075    1.0000 </r>
       <r>   -9.2947    1.0000 </r>
       <r>   -9.2943    1.0000 </r>
       <r>   -9.2674    1.0000 </r>
       <r>   -9.1099    1.0000 </r>
       <r>   -9.1090    1.0000 </r>
       <r>   -9.0379    1.0000 </r>
       <r>   -8.9773    1.0000 </r>
       <r>   -8.9769    1.0000 </r>
       <r>   -8.7969    1.0000 </r>
       <r>   -8.7964    1.0000 </r>
       <r>   -8.7136    1.0000 </r>
       <r>   -8.7036    1.0000 </r>
       <r>   -8.5588    1.0000 </r>
       <r>   -8.5060    1.0000 </r>
       <r>   -8.5048    1.0000 </r>
       <r>   -8.4027    1.0000 </r>
       <r>   -8.3762    1.0000 </r>
       <r>   -8.3753    1.0000 </r>
       <r>   -8.2554    1.0000 </r>
       <r>   -8.2550    1.0000 </r>
       <r>   -8.1695    1.0000 </r>
       <r>   -7.8552    1.0000 </r>
       <r>   -7.8551    1.0000 </r>
       <r>   -7.8269    1.0000 </r>
       <r>   -7.8260    1.0000 </r>
       <r>   -7.4504    1.0000 </r>
       <r>   -7.4500    1.0000 </r>
       <r>   -7.3349    1.0000 </r>
       <r>   -7.3287    1.0000 </r>
       <r>   -7.3265    1.0000 </r>
       <r>   -7.3264    1.0000 </r>
       <r>   -7.1559    1.0000 </r>
       <r>   -7.1541    1.0000 </r>
       <r>   -6.9547    1.0000 </r>
       <r>   -6.9507    1.0000 </r>
       <r>   -6.9500    1.0000 </r>
       <r>   -6.8704    1.0000 </r>
       <r>   -6.8698    1.0000 </r>
       <r>   -6.8612    1.0000 </r>
       <r>   -6.6659    1.0000 </r>
       <r>   -6.3951    1.0000 </r>
       <r>   -6.3941    1.0000 </r>
       <r>   -6.3822    1.0000 </r>
       <r>   -6.1624    1.0000 </r>
       <r>   -6.1430    1.0000 </r>
       <r>   -6.1418    1.0000 </r>
       <r>   -6.0371    1.0000 </r>
       <r>   -5.9066    1.0000 </r>
       <r>   -5.9065    1.0000 </r>
       <r>   -5.7836    1.0000 </r>
       <r>   -5.7823    1.0000 </r>
       <r>   -5.7670    1.0000 </r>
       <r>   -5.4514    1.0000 </r>
       <r>   -5.4504    1.0000 </r>
       <r>   -2.9383    0.0000 </r>
       <r>   -2.9376    0.0000 </r>
       <r>   -2.9310    0.0000 </r>
       <r>   -2.7405    0.0000 </r>
       <r>   -2.7402    0.0000 </r>
       <r>   -2.3183    0.0000 </r>
       <r>   -2.3176    0.0000 </r>
       <r>   -2.3158    0.0000 </r>
       <r>   -2.2246    0.0000 </r>
       <r>   -2.2245    0.0000 </r>
       <r>   -2.1200    0.0000 </r>
       <r>   -1.7404    0.0000 </r>
       <r>   -1.7221    0.0000 </r>
       <r>   -1.7219    0.0000 </r>
       <r>   -1.5397    0.0000 </r>
       <r>   -1.2250    0.0000 </r>
       <r>   -1.1997    0.0000 </r>
       <r>   -1.1995    0.0000 </r>
       <r>   -0.7215    0.0000 </r>
       <r>   -0.5519    0.0000 </r>
       <r>   -0.5513    0.0000 </r>
       <r>   -0.4585    0.0000 </r>
       <r>   -0.4579    0.0000 </r>
       <r>   -0.4418    0.0000 </r>
       <r>   -0.2743    0.0000 </r>
       <r>   -0.2724    0.0000 </r>
       <r>   -0.1263    0.0000 </r>
       <r>   -0.1240    0.0000 </r>
       <r>   -0.0972    0.0000 </r>
       <r>    0.0025    0.0000 </r>
       <r>    0.0054    0.0000 </r>
       <r>    0.0208    0.0000 </r>
       <r>    0.0225    0.0000 </r>
       <r>    0.0573    0.0000 </r>
       <r>    0.1047    0.0000 </r>
       <r>    0.1932    0.0000 </r>
       <r>    0.2151    0.0000 </r>
       <r>    0.2154    0.0000 </r>
       <r>    0.2223    0.0000 </r>
       <r>    0.2869    0.0000 </r>
       <r>    0.4139    0.0000 </r>
       <r>    0.4158    0.0000 </r>
       <r>    0.4763    0.0000 </r>
       <r>    0.5266    0.0000 </r>
       <r>    0.5280    0.0000 </r>
       <r>    0.5307    0.0000 </r>
       <r>    0.6331    0.0000 </r>
       <r>    0.6374    0.0000 </r>
       <r>    0.6830    0.0000 </r>
       <r>    0.7417    0.0000 </r>
       <r>    0.7436    0.0000 </r>
       <r>    0.7600    0.0000 </r>
       <r>    0.8197    0.0000 </r>
       <r>    0.8260    0.0000 </r>
       <r>    0.8270    0.0000 </r>
       <r>    0.8303    0.0000 </r>
       <r>    0.8451    0.0000 </r>
       <r>    0.8524    0.0000 </r>
       <r>    0.8721    0.0000 </r>
       <r>    0.9078    0.0000 </r>
       <r>    0.9163    0.0000 </r>
       <r>    0.9178    0.0000 </r>
       <r>    0.9886    0.0000 </r>
      </set>
      <set comment="kpoint 2">
       <r>  -27.2196    1.0000 </r>
       <r>  -27.2173    1.0000 </r>
       <r>  -27.2171    1.0000 </r>
       <r>  -25.1316    1.0000 </r>
       <r>  -25.1307    1.0000 </r>
       <r>  -25.1298    1.0000 </r>
       <r>  -24.8015    1.0000 </r>
       <r>  -24.8005    1.0000 </r>
       <r>  -24.8003    1.0000 </r>
       <r>  -22.9553    1.0000 </r>
       <r>  -22.9542    1.0000 </r>
       <r>  -22.9537    1.0000 </r>
       <r>  -22.3291    1.0000 </r>
       <r>  -21.9879    1.0000 </r>
       <r>  -21.9870    1.0000 </r>
       <r>  -21.8533    1.0000 </r>
       <r>  -21.5749    1.0000 </r>
       <r>  -21.5031    1.0000 </r>
       <r>  -21.5026    1.0000 </r>
       <r>  -21.1081    1.0000 </r>
       <r>  -20.4811    1.0000 </r>
       <r>  -20.4799    1.0000 </r>
       <r>  -20.1134    1.0000 </r>
       <r>  -19.9462    1.0000 </r>
       <r>  -19.9448    1.0000 </r>
       <r>  -19.3040    1.0000 </r>
       <r>  -19.3008    1.0000 </r>
       <r>  -19.1700    1.0000 </r>
       <r>  -19.0311    1.0000 </r>
       <r>  -19.0302    1.0000 </r>
       <r>  -19.0094    1.0000 </r>
       <r>  -18.5591    1.0000 </r>
       <r>  -18.5584    1.0000 </r>
       <r>  -18.5079    1.0000 </r>
       <r>  -18.3798    1.0000 </r>
       <r>  -18.3761    1.0000 </r>
       <r>  -18.2746    1.0000 </r>
       <r>  -17.7378    1.0000 </r>
       <r>  -17.7376    1.0000 </r>
       <r>  -16.9868    1.0000 </r>
       <r>  -16.9793    1.0000 </r>
       <r>  -16.9790    1.0000 </r>
       <r>  -16.6913    1.0000 </r>
       <r>  -16.6876    1.0000 </r>
       <r>  -16.6848    1.0000 </r>
       <r>  -16.0456    1.0000 </r>
       <r>  -16.0453    1.0000 </r>
       <r>  -15.5966    1.0000 </r>
       <r>  -15.5951    1.0000 </r>
       <r>  -15.5655    1.0000 </r>
       <r>  -15.4465    1.0000 </r>
       <r>  -15.2239    1.0000 </r>
       <r>  -15.2232    1.0000 </r>
       <r>  -15.0833    1.0000 </r>
       <r>  -15.0026    1.0000 </r>
       <r>  -14.9996    1.0000 </r>
       <r>  -14.9900    1.0000 </r>
       <r>  -14.8618    1.0000 </r>
       <r>  -14.7702    1.0000 </r>
       <r>  -14.7698    1.0000 </r>
       <r>  -14.4221    1.0000 </r>
       <r>  -14.4218    1.0000 </r>
       <r>  -14.0019    1.0000 </r>
       <r>  -14.0017    1.0000 </r>
       <r>  -13.8923    1.0000 </r>
       <r>  -13.6208    1.0000 </r>
       <r>  -13.6172    1.0000 </r>
       <r>  -13.6124    1.0000 </r>
       <r>  -13.3038    1.0000 </r>
       <r>  -13.2983    1.0000 </r>
       <r>  -13.2976    1.0000 </r>
       <r>  -13.1929    1.0000 </r>
       <r>  -13.1819    1.0000 </r>
       <r>  -13.1714    1.0000 </r>
       <r>  -12.6503    1.0000 </r>
       <r>  -12.4799    1.0000 </r>
       <r>  -12.4230    1.0000 </r>
       <r>  -12.3284    1.0000 </r>
       <r>  -12.3278    1.0000 </r>
       <r>  -12.0318    1.0000 </r>
       <r>  -11.9522    1.0000 </r>
       <r>  -11.9248    1.0000 </r>
       <r>  -11.9233    1.0000 </r>
       <r>  -11.7435    1.0000 </r>
       <r>  -11.6490    1.0000 </r>
       <r>  -11.6482    1.0000 </r>
       <r>  -11.3642    1.0000 </r>
       <r>  -11.3639    1.0000 </r>
       <r>  -11.3012    1.0000 </r>
       <r>  -11.3003    1.0000 </r>
       <r>  -11.1152    1.0000 </r>
       <r>  -11.0235    1.0000 </r>
       <r>  -11.0227    1.0000 </r>
       <r>  -10.9567    1.0000 </r>
       <r>  -10.8644    1.0000 </r>
       <r>  -10.8638    1.0000 </r>
       <r>  -10.7599    1.0000 </r>
       <r>  -10.7593    1.0000 </r>
       <r>  -10.7335    1.0000 </r>
       <r>  -10.6030    1.0000 </r>
       <r>  -10.5614    1.0000 </r>
       <r>  -10.5599    1.0000 </r>
       <r>  -10.5224    1.0000 </r>
       <r>  -10.3408    1.0000 </r>
       <r>  -10.3358    1.0000 </r>
       <r>  -10.3199    1.0000 </r>
       <r>  -10.3187    1.0000 </r>
       <r>  -10.2644    1.0000 </r>
       <r>  -10.2033    1.0000 </r>
       <r>  -10.2004    1.0000 </r>
       <r>  -10.1997    1.0000 </r>
       <r>  -10.1924    1.0000 </r>
       <r>  -10.1369    1.0000 </r>
       <r>  -10.1354    1.0000 </r>
       <r>  -10.0271    1.0000 </r>
       <r>  -10.0258    1.0000 </r>
       <r>   -9.9219    1.0000 </r>
       <r>   -9.8868    1.0000 </r>
       <r>   -9.8855    1.0000 </r>
       <r>   -9.8511    1.0000 </r>
       <r>   -9.4600    1.0000 </r>
       <r>   -9.4084    1.0000 </r>
       <r>   -9.4075    1.0000 </r>
       <r>   -9.2947    1.0000 </r>
       <r>   -9.2943    1.0000 </r>
       <r>   -9.2673    1.0000 </r>
       <r>   -9.1103    1.0000 </r>
       <r>   -9.1093    1.0000 </r>
       <r>   -9.0376    1.0000 </r>
       <r>   -8.9771    1.0000 </r>
       <r>   -8.9766    1.0000 </r>
       <r>   -8.7970    1.0000 </r>
       <r>   -8.7964    1.0000 </r>
       <r>   -8.7135    1.0000 </r>
       <r>   -8.7036    1.0000 </r>
       <r>   -8.5594    1.0000 </r>
       <r>   -8.5059    1.0000 </r>
       <r>   -8.5043    1.0000 </r>
       <r>   -8.4033    1.0000 </r>
       <r>   -8.3762    1.0000 </r>
       <r>   -8.3748    1.0000 </r>
       <r>   -8.2554    1.0000 </r>
       <r>   -8.2551    1.0000 </r>
       <r>   -8.1695    1.0000 </r>
       <r>   -7.8552    1.0000 </r>
       <r>   -7.8551    1.0000 </r>
       <r>   -7.8269    1.0000 </r>
       <r>   -7.8261    1.0000 </r>
       <r>   -7.4506    1.0000 </r>
       <r>   -7.4500    1.0000 </r>
       <r>   -7.3345    1.0000 </r>
       <r>   -7.3287    1.0000 </r>
       <r>   -7.3265    1.0000 </r>
       <r>   -7.3264    1.0000 </r>
       <r>   -7.1560    1.0000 </r>
       <r>   -7.1542    1.0000 </r>
       <r>   -6.9547    1.0000 </r>
       <r>   -6.9507    1.0000 </r>
       <r>   -6.9500    1.0000 </r>
       <r>   -6.8704    1.0000 </r>
       <r>   -6.8698    1.0000 </r>
       <r>   -6.8612    1.0000 </r>
       <r>   -6.6658    1.0000 </r>
       <r>   -6.3951    1.0000 </r>
       <r>   -6.3941    1.0000 </r>
       <r>   -6.3822    1.0000 </r>
       <r>   -6.1624    1.0000 </r>
       <r>   -6.1429    1.0000 </r>
       <r>   -6.1418    1.0000 </r>
       <r>   -6.0372    1.0000 </r>
       <r>   -5.9065    1.0000 </r>
       <r>   -5.9065    1.0000 </r>
       <r>   -5.7837    1.0000 </r>
       <r>   -5.7823    1.0000 </r>
       <r>   -5.7669    1.0000 </r>
       <r>   -5.4514    1.0000 </r>
       <r>   -5.4504    1.0000 </r>
       <r>   -2.9383    0.0000 </r>
       <r>   -2.9376    0.0000 </r>
       <r>   -2.9310    0.0000 </r>
       <r>   -2.7405    0.0000 </r>
       <r>   -2.7402    0.0000 </r>
       <r>   -2.3183    0.0000 </r>
       <r>   -2.3176    0.0000 </r>
       <r>   -2.3158    0.0000 </r>
       <r>   -2.2246    0.0000 </r>
       <r>   -2.2245    0.0000 </r>
       <r>   -2.1199    0.0000 </r>
       <r>   -1.7404    0.0000 </r>
       <r>   -1.7221    0.0000 </r>
       <r>   -1.7219    0.0000 </r>
       <r>   -1.5397    0.0000 </r>
       <r>   -1.2250    0.0000 </r>
       <r>   -1.1997    0.0000 </r>
       <r>   -1.1995    0.0000 </r>
       <r>   -0.7215    0.0000 </r>
       <r>   -0.5519    0.0000 </r>
       <r>   -0.5513    0.0000 </r>
       <r>   -0.4589    0.0000 </r>
       <r>   -0.4583    0.0000 </r>
       <r>   -0.4411    0.0000 </r>
       <r>   -0.2742    0.0000 </r>
       <r>   -0.2722    0.0000 </r>
       <r>   -0.1263    0.0000 </r>
       <r>   -0.1242    0.0000 </r>
       <r>   -0.0972    0.0000 </r>
       <r>    0.0024    0.0000 </r>
       <r>    0.0054    0.0000 </r>
       <r>    0.0202    0.0000 </r>
       <r>    0.0222    0.0000 </r>
       <r>    0.0573    0.0000 </r>
       <r>    0.1047    0.0000 </r>
       <r>    0.1933    0.0000 </r>
       <r>    0.2155    0.0000 </r>
[...]
       <r>   -23.4563     0.0000    18.0000 </r>
       <r>   -23.3528     0.0000    18.0000 </r>
       <r>   -23.2493     0.0000    18.0000 </r>
       <r>   -23.1458     0.0000    18.0000 </r>
       <r>   -23.0423     0.0000    18.0000 </r>
       <r>   -22.9388    57.1599    23.9155 </r>
       <r>   -22.8353     0.0000    24.0000 </r>
       <r>   -22.7318     0.0000    24.0000 </r>
       <r>   -22.6284     0.0000    24.0000 </r>
       <r>   -22.5249     0.0000    24.0000 </r>
       <r>   -22.4214     0.0000    24.0000 </r>
       <r>   -22.3179    18.2273    25.8864 </r>
       <r>   -22.2144     0.0000    26.0000 </r>
       <r>   -22.1109     0.0000    26.0000 </r>
       <r>   -22.0074     0.0950    26.0098 </r>
       <r>   -21.9039     0.0000    30.0000 </r>
       <r>   -21.8004    19.3254    32.0000 </r>
       <r>   -21.6969     0.0000    32.0000 </r>
       <r>   -21.5935     0.7421    32.0768 </r>
       <r>   -21.4900    33.4855    37.4654 </r>
       <r>   -21.3865     0.0000    38.0000 </r>
       <r>   -21.2830     0.0000    38.0000 </r>
       <r>   -21.1795     0.0000    38.0000 </r>
       <r>   -21.0760    19.3254    40.0000 </r>
       <r>   -20.9725     0.0000    40.0000 </r>
       <r>   -20.8690     0.0000    40.0000 </r>
       <r>   -20.7655     0.0000    40.0000 </r>
       <r>   -20.6620     0.0000    40.0000 </r>
       <r>   -20.5585     0.0000    40.0000 </r>
       <r>   -20.4551    26.0737    42.6984 </r>
       <r>   -20.3516     6.1191    44.0000 </r>
       <r>   -20.2481     5.2935    44.5478 </r>
       <r>   -20.1446     5.0985    45.6277 </r>
       <r>   -20.0411     1.9325    46.0000 </r>
       <r>   -19.9376    18.7655    47.9421 </r>
       <r>   -19.8341     3.5865    48.7045 </r>
       <r>   -19.7306     8.4113    49.6705 </r>
       <r>   -19.6271     0.0000    50.0000 </r>
       <r>   -19.5236     9.8546    51.0199 </r>
       <r>   -19.4201     2.8218    51.4254 </r>
       <r>   -19.3167     3.3624    51.8480 </r>
       <r>   -19.2132     0.0000    54.0000 </r>
       <r>   -19.1097     3.8573    54.3992 </r>
       <r>   -19.0062    52.2247    59.9048 </r>
       <r>   -18.9027     3.6266    61.0753 </r>
       <r>   -18.7992     4.8313    62.0000 </r>
       <r>   -18.6957     3.4227    62.3542 </r>
       <r>   -18.5922     5.7021    63.3235 </r>
       <r>   -18.4887    56.2379    69.3868 </r>
       <r>   -18.3852     5.5696    70.0764 </r>
       <r>   -18.2818     0.2841    72.0294 </r>
       <r>   -18.1783     3.1540    72.5264 </r>
       <r>   -18.0748     6.0108    73.2554 </r>
       <r>   -17.9713     0.0000    74.0000 </r>
       <r>   -17.8678     0.0000    74.0000 </r>
       <r>   -17.7643    13.3966    75.3864 </r>
       <r>   -17.6608    21.5781    78.0000 </r>
       <r>   -17.5573     0.0000    78.0000 </r>
       <r>   -17.4538     0.0000    78.0000 </r>
       <r>   -17.3503     0.0000    78.0000 </r>
       <r>   -17.2468     0.0000    78.0000 </r>
       <r>   -17.1434     0.0000    78.0000 </r>
       <r>   -17.0399     0.0000    78.0000 </r>
       <r>   -16.9364    57.9763    84.0000 </r>
       <r>   -16.8329     0.0000    84.0000 </r>
       <r>   -16.7294     1.5002    84.1553 </r>
       <r>   -16.6259    42.8362    89.9998 </r>
       <r>   -16.5224     0.0000    90.0000 </r>
       <r>   -16.4189     0.0000    90.0000 </r>
       <r>   -16.3154     0.0000    90.0000 </r>
       <r>   -16.2119     0.0000    90.0000 </r>
       <r>   -16.1084     0.0000    90.0000 </r>
       <r>   -16.0050    34.1315    93.5323 </r>
       <r>   -15.9015     0.0000    94.0000 </r>
       <r>   -15.7980     0.0000    94.0000 </r>
       <r>   -15.6945    10.5744    95.0944 </r>
       <r>   -15.5910    21.3500    97.5095 </r>
       <r>   -15.4875    19.3225   100.0000 </r>
       <r>   -15.3840     5.9360   100.6143 </r>
       <r>   -15.2805    11.9705   102.0055 </r>
       <r>   -15.1770    33.8189   106.0000 </r>
       <r>   -15.0735    17.6967   107.8314 </r>
       <r>   -14.9701    54.7272   113.6637 </r>
       <r>   -14.8666     5.5119   114.5704 </r>
       <r>   -14.7631    32.2422   119.3368 </r>
       <r>   -14.6596     0.0000   120.0000 </r>
       <r>   -14.5561     0.0000   120.0000 </r>
       <r>   -14.4526     0.0003   120.0000 </r>
       <r>   -14.3491    38.6506   124.0000 </r>
       <r>   -14.2456     0.0000   124.0000 </r>
       <r>   -14.1421     0.0000   124.0000 </r>
       <r>   -14.0386     0.0000   124.0000 </r>
       <r>   -13.9351    38.6508   128.0000 </r>
       <r>   -13.8317    19.3254   130.0000 </r>
       <r>   -13.7282     0.0000   130.0000 </r>
       <r>   -13.6247    20.6522   132.1373 </r>
       <r>   -13.5212    16.7477   135.9999 </r>
       <r>   -13.4177     0.0000   136.0000 </r>
       <r>   -13.3142    13.5485   137.4021 </r>
       <r>   -13.2107    12.8716   143.7989 </r>
       <r>   -13.1072    24.6454   146.4839 </r>
       <r>   -13.0037    13.2056   148.0000 </r>
       <r>   -12.9002     0.0000   148.0000 </r>
       <r>   -12.7968     0.0000   148.0000 </r>
       <r>   -12.6933     0.0005   148.0000 </r>
       <r>   -12.5898    19.3250   150.0000 </r>
       <r>   -12.4863     4.0666   150.4209 </r>
       <r>   -12.3828    19.3254   154.0000 </r>
       <r>   -12.2793    38.6508   158.0000 </r>
       <r>   -12.1758     0.0000   158.0000 </r>
       <r>   -12.0723     0.0000   158.0000 </r>
       <r>   -11.9688    38.0722   161.9401 </r>
       <r>   -11.8653    23.8346   166.0000 </r>
       <r>   -11.7618     3.5201   166.3643 </r>
       <r>   -11.6584     0.3435   168.0356 </r>
       <r>   -11.5549    19.8860   170.8247 </r>
       <r>   -11.4514     9.0183   172.0000 </r>
       <r>   -11.3479    38.5919   175.9939 </r>
       <r>   -11.2444    38.6335   179.9982 </r>
       <r>   -11.1409     6.4772   180.6703 </r>
       <r>   -11.0374    24.2583   183.5772 </r>
       <r>   -10.9339    33.1734   187.9998 </r>
       <r>   -10.8304    37.3093   191.8612 </r>
       <r>   -10.7269    51.1741   197.2960 </r>
       <r>   -10.6234    15.9652   199.6522 </r>
       <r>   -10.5200    34.4162   203.5618 </r>
       <r>   -10.4165    13.2048   205.9999 </r>
       <r>   -10.3130    69.1466   213.1560 </r>
       <r>   -10.2095    30.2025   217.1257 </r>
       <r>   -10.1060    48.9489   227.9992 </r>
       <r>   -10.0025    38.4542   231.9796 </r>
       <r>    -9.8990    23.6268   234.4452 </r>
       <r>    -9.7955    19.3254   240.0000 </r>
       <r>    -9.6920     0.0000   240.0000 </r>
       <r>    -9.5885     0.0000   240.0000 </r>
       <r>    -9.4851     0.0011   240.0001 </r>
       <r>    -9.3816    57.9693   245.9994 </r>
       <r>    -9.2781    38.5667   249.9913 </r>
       <r>    -9.1746    16.1465   252.4711 </r>
       <r>    -9.0711    26.4113   256.0000 </r>
       <r>    -8.9676    27.4510   258.8409 </r>
       <r>    -8.8641    16.7481   262.0000 </r>
       <r>    -8.7606    36.3830   265.7653 </r>
       <r>    -8.6571    36.0739   270.0000 </r>
       <r>    -8.5536    18.9118   271.9572 </r>
       <r>    -8.4501    43.5362   276.5056 </r>
       <r>    -8.3467    33.3226   280.8819 </r>
       <r>    -8.2432    37.5051   285.8814 </r>
       <r>    -8.1397    19.3252   288.0000 </r>
       <r>    -8.0362     0.0000   288.0000 </r>
       <r>    -7.9327     0.0000   288.0000 </r>
       <r>    -7.8292    55.6934   293.7637 </r>
       <r>    -7.7257     0.0000   296.0000 </r>
       <r>    -7.6222     0.0000   296.0000 </r>
       <r>    -7.5187     0.0000   296.0000 </r>
       <r>    -7.4152    38.6508   300.0000 </r>
       <r>    -7.3117    62.2352   306.4408 </r>
       <r>    -7.2083    16.6977   308.5281 </r>
       <r>    -7.1048    27.0554   312.0000 </r>
       <r>    -7.0013     0.0000   312.0000 </r>
       <r>    -6.8978    57.9783   318.0002 </r>
       <r>    -6.7943    57.9743   324.0000 </r>
       <r>    -6.6908     0.0006   324.0001 </r>
       <r>    -6.5873    19.3248   326.0000 </r>
       <r>    -6.4838     0.0000   326.0000 </r>
       <r>    -6.3803    49.4222   331.1147 </r>
       <r>    -6.2768     0.0000   332.0000 </r>
       <r>    -6.1734     5.6049   332.5801 </r>
       <r>    -6.0699    38.6536   338.0003 </r>
       <r>    -5.9664    19.3225   340.0000 </r>
       <r>    -5.8629    38.6491   343.9998 </r>
       <r>    -5.7594    52.2353   349.4059 </r>
       <r>    -5.6559     0.0000   350.0000 </r>
       <r>    -5.5524     0.0000   350.0000 </r>
       <r>    -5.4489    23.8392   352.4671 </r>
       <r>    -5.3454     0.0000   354.0000 </r>
       <r>    -5.2419     0.0000   354.0000 </r>
       <r>    -5.1384     0.0000   354.0000 </r>
       <r>    -5.0350     0.0000   354.0000 </r>
       <r>    -4.9315     0.0000   354.0000 </r>
       <r>    -4.8280     0.0000   354.0000 </r>
       <r>    -4.7245     0.0000   354.0000 </r>
       <r>    -4.6210     0.0000   354.0000 </r>
       <r>    -4.5175     0.0000   354.0000 </r>
       <r>    -4.4140     0.0000   354.0000 </r>
       <r>    -4.3105     0.0000   354.0000 </r>
       <r>    -4.2070     0.0000   354.0000 </r>
       <r>    -4.1035     0.0000   354.0000 </r>
       <r>    -4.0000     0.0000   354.0000 </r>
       <r>    -3.8966     0.0000   354.0000 </r>
       <r>    -3.7931     0.0000   354.0000 </r>
       <r>    -3.6896     0.0000   354.0000 </r>
       <r>    -3.5861     0.0000   354.0000 </r>
       <r>    -3.4826     0.0000   354.0000 </r>
       <r>    -3.3791     0.0000   354.0000 </r>
       <r>    -3.2756     0.0000   354.0000 </r>
       <r>    -3.1721     0.0000   354.0000 </r>
       <r>    -3.0686     0.0000   354.0000 </r>
       <r>    -2.9651     0.0023   354.0002 </r>
       <r>    -2.8617    57.9739   360.0000 </r>
       <r>    -2.7582     0.1752   360.0181 </r>
       <r>    -2.6547     0.0000   364.0000 </r>
       <r>    -2.5512     0.0000   364.0000 </r>
       <r>    -2.4477     0.0000   364.0000 </r>
       <r>    -2.3442     0.0043   364.0004 </r>
       <r>    -2.2407    60.0776   370.2179 </r>
       <r>    -2.1372     0.0288   374.0030 </r>
       <r>    -2.0337    11.9160   376.0000 </r>
       <r>    -1.9302     0.0000   376.0000 </r>
       <r>    -1.8267     0.0000   376.0000 </r>
       <r>    -1.7233    35.4526   379.6690 </r>
       <r>    -1.6198     0.0000   382.0000 </r>
       <r>    -1.5163    19.3202   383.9995 </r>
       <r>    -1.4128     0.0000   384.0000 </r>
       <r>    -1.3093     0.0000   384.0000 </r>
       <r>    -1.2058    27.0413   386.7985 </r>
       <r>    -1.1023     0.0000   390.0000 </r>
       <r>    -0.9988     0.0000   390.0000 </r>
       <r>    -0.8953     0.0000   390.0000 </r>
       <r>    -0.7918     0.0000   390.0000 </r>
       <r>    -0.6883    19.3254   392.0000 </r>
       <r>    -0.5849     0.0000   392.0000 </r>
       <r>    -0.4814    51.1848   397.2971 </r>
       <r>    -0.3779    19.3235   401.9998 </r>
       <r>    -0.2744     3.2679   402.3382 </r>
       <r>    -0.1709    21.5927   406.0681 </r>
       <r>    -0.0674    47.7070   412.0706 </r>
       <r>     0.0361    67.0223   420.0695 </r>
       <r>     0.1396    19.3254   424.0000 </r>
       <r>     0.2431    46.2598   428.7875 </r>
       <r>     0.3466    27.9872   432.9964 </r>
       <r>     0.4500    44.1573   438.2699 </r>
       <r>     0.5535    37.5580   443.6870 </r>
       <r>     0.6570    56.4735   451.5779 </r>
       <r>     0.7605    47.3157   457.7301 </r>
       <r>     0.8640    76.1297   467.8788 </r>
       <r>     0.9675    71.7892   477.9629 </r>
       <r>     1.0710     4.5089   480.0000 </r>
       <r>     1.1745     0.0000   480.0000 </r>
       <r>     1.2780     0.0000   480.0000 </r>
       <r>     1.3815     0.0000   480.0000 </r>
       <r>     1.4850     0.0000   480.0000 </r>
       <r>     1.5884     0.0000   480.0000 </r>
       <r>     1.6919     0.0000   480.0000 </r>
       <r>     1.7954     0.0000   480.0000 </r>
       <r>     1.8989     0.0000   480.0000 </r>
       <r>     2.0024     0.0000   480.0000 </r>
       <r>     2.1059     0.0000   480.0000 </r>
       <r>     2.2094     0.0000   480.0000 </r>
       <r>     2.3129     0.0000   480.0000 </r>
       <r>     2.4164     0.0000   480.0000 </r>
      </set>
     </set>
    </array>
   </total>
  </dos>
 </calculation>
 <structure name="finalpos" >
  <crystal>
   <varray name="basis" >
    <v>      29.79309212      -0.00067499       0.00000000 </v>
    <v>     -14.89713067      25.79488898       0.00000000 </v>
    <v>       0.00000000       0.00000000      20.00000000 </v>
   </varray>
   <i name="volume">  15369.98896717 </i>
   <varray name="rec_basis" >
    <v>       0.03356527       0.01938470       0.00000000 </v>
    <v>       0.00000088       0.03876788       0.00000000 </v>
    <v>       0.00000000       0.00000000       0.05000000 </v>
   </varray>
  </crystal>
  <varray name="positions" >
   <v>       0.12204140       0.63245382       0.50833584 </v>
   <v>       0.21642186       0.67995118       0.50285193 </v>
   <v>       0.12201443       0.48781544       0.50784269 </v>
   <v>       0.21639588       0.53474236       0.50233920 </v>
   <v>       0.32641732       0.53477306       0.50227852 </v>
   <v>       0.37389904       0.48784212       0.50768527 </v>
   <v>       0.47160628       0.67999668       0.50316943 </v>
   <v>       0.51851028       0.63250194       0.50859162 </v>
   <v>       0.47166392       0.78994414       0.50265269 </v>
   <v>       0.51862814       0.88435709       0.50807782 </v>
   <v>       0.37405878       0.88443313       0.50827625 </v>
   <v>       0.32651623       0.79000125       0.50278960 </v>
   <v>       0.29025900       0.71618456       0.50170932 </v>
   <v>       0.29021886       0.57237782       0.50219540 </v>
   <v>       0.43401306       0.71615551       0.50180338 </v>
   <v>       0.88769600       0.37081859       0.50523573 </v>
   <v>       0.79320944       0.32325732       0.50340994 </v>
   <v>       0.88774710       0.51536855       0.50522058 </v>
   <v>       0.79325271       0.46843632       0.50320985 </v>
   <v>       0.68319514       0.46845986       0.50311892 </v>
   <v>       0.63560698       0.51535712       0.50515776 </v>
   <v>       0.53807115       0.32325644       0.50317806 </v>
   <v>       0.49112023       0.37076982       0.50504612 </v>
   <v>       0.53806809       0.21328955       0.50307423 </v>
   <v>       0.49105189       0.11878560       0.50543760 </v>
   <v>       0.63549511       0.11866037       0.50546741 </v>
   <v>       0.68313802       0.21315426       0.50311972 </v>
   <v>       0.71940949       0.28704202       0.50272204 </v>
   <v>       0.71944348       0.43084831       0.50290980 </v>
   <v>       0.57565761       0.28706029       0.50264416 </v>
   <v>       0.44827894       0.88824310       0.60866207 </v>
   <v>       0.44800882       0.55791848       0.60885781 </v>
   <v>       0.11786063       0.55827001       0.60888771 </v>
   <v>       0.52540824       0.04221178       0.39985822 </v>
   <v>       0.52421581       0.48063951       0.39943411 </v>
   <v>       0.96439646       0.48074946       0.39947581 </v>
   <v>       0.05710879       0.52770259       0.51146906 </v>
   <v>       0.02694681       0.51293033       0.57061887 </v>
   <v>       0.04720608       0.52332186       0.64262118 </v>
   <v>       0.28316523       0.64073765       0.50149839 </v>
   <v>       0.31129348       0.69512882       0.50134865 </v>
   <v>       0.36567537       0.72323810       0.50146259 </v>
   <v>       0.39192336       0.69511556       0.50140801 </v>
   <v>       0.36564565       0.64073348       0.50156718 </v>
   <v>       0.31127019       0.61446976       0.50155690 </v>
   <v>       0.39459286       0.78099895       0.50288370 </v>
   <v>       0.36866929       0.80965089       0.50407050 </v>
   <v>       0.39546928       0.86356674       0.50720076 </v>
   <v>       0.44984946       0.89141446       0.50947127 </v>
   <v>       0.47634687       0.86353402       0.50708964 </v>
   <v>       0.44918119       0.80961521       0.50398823 </v>
   <v>       0.22540838       0.61184601       0.50289042 </v>
   <v>       0.19677899       0.63779265       0.50413498 </v>
   <v>       0.14287302       0.61101017       0.50728433 </v>
   <v>       0.11498753       0.55661800       0.50950310 </v>
   <v>       0.14284919       0.53010415       0.50700530 </v>
   <v>       0.19675779       0.55725102       0.50386615 </v>
   <v>       0.39452142       0.61186410       0.50297827 </v>
   <v>       0.36856578       0.55727338       0.50384364 </v>
   <v>       0.39532835       0.53013223       0.50692744 </v>
   <v>       0.44969856       0.55666586       0.50950075 </v>
   <v>       0.47623066       0.61105912       0.50743971 </v>
   <v>       0.44910280       0.63783340       0.50432797 </v>
   <v>       0.72650594       0.36248627       0.50265192 </v>
   <v>       0.69837189       0.30809756       0.50256259 </v>
   <v>       0.64399285       0.27996942       0.50253497 </v>
   <v>       0.61775199       0.30810734       0.50250871 </v>
   <v>       0.64400884       0.36249553       0.50258617 </v>
   <v>       0.69838876       0.38874792       0.50265443 </v>
   <v>       0.61508276       0.22218207       0.50289474 </v>
   <v>       0.64095770       0.19348718       0.50329661 </v>
   <v>       0.61404820       0.13950221       0.50445521 </v>
   <v>       0.55980156       0.11179344       0.50530959 </v>
   <v>       0.53334177       0.13957033       0.50445259 </v>
   <v>       0.56050842       0.19355299       0.50327997 </v>
   <v>       0.78427739       0.39137162       0.50299686 </v>
   <v>       0.81291497       0.36544226       0.50337094 </v>
   <v>       0.86688660       0.39229648       0.50425687 </v>
   <v>       0.89462887       0.44654315       0.50492570 </v>
   <v>       0.86691928       0.47307142       0.50424859 </v>
   <v>       0.81294616       0.44595292       0.50329831 </v>
   <v>       0.61511705       0.39137866       0.50288692 </v>
   <v>       0.64101394       0.44596019       0.50321293 </v>
   <v>       0.61414095       0.47306269       0.50418696 </v>
   <v>       0.55989864       0.44653518       0.50486135 </v>
   <v>       0.53341061       0.39228520       0.50411499 </v>
   <v>       0.56054452       0.36544457       0.50320988 </v>
   <v>       0.47875102       0.94928748       0.51157337 </v>
   <v>       0.53096921       0.05413052       0.50783007 </v>
   <v>       0.49363559       0.97931993       0.57083221 </v>
   <v>       0.48362061       0.95882290       0.64274438 </v>
   <v>       0.47860825       0.52772670       0.51143981 </v>
   <v>       0.53104939       0.47533910       0.50735762 </v>
   <v>       0.49407615       0.51305466       0.57058978 </v>
   <v>       0.48430285       0.52356018       0.64259321 </v>
   <v>       0.95227073       0.47533581       0.50740507 </v>
   <v>       0.51611944       0.02396642       0.44921317 </v>
   <v>       0.51546700       0.49002852       0.44884693 </v>
   <v>       0.98254063       0.49011144       0.44888773 </v>
   <v>       0.01817344       0.50911149       0.69024777 </v>
   <v>       0.09938951       0.54927581       0.65194257 </v>
   <v>       0.49822209       0.98769733       0.69053898 </v>
   <v>       0.45760467       0.90659278       0.65180637 </v>
   <v>       0.49951171       0.50973794       0.69022235 </v>
   <v>       0.45766612       0.54911242       0.65192378 </v>
   <v>       0.03420016       0.51596506       0.45086317 </v>
   <v>       0.51945148       0.03133070       0.56779354 </v>
   <v>       0.52009133       0.48708943       0.56736300 </v>
   <v>       0.97495189       0.48698454       0.56742749 </v>
   <v>       0.49031981       0.97229328       0.45102895 </v>
   <v>       0.48964603       0.51586760       0.45084234 </v>
  </varray>
 </structure>
</modeling>
