<?xml version="1.0" encoding="ISO-8859-1"?>
<modeling>
 <generator>
  <i name="program" type="string">vasp </i>
  <i name="version" type="string">5.4.4.18Apr17-6-g9f103f2a35  </i>
  <i name="subversion" type="string">(build Jun 07 2020 16:50:00) complex            parallel </i>
  <i name="platform" type="string">LinuxIFC </i>
  <i name="date" type="string">2023 02 27 </i>
  <i name="time" type="string">06:36:32 </i>
 </generator>
 <incar>
  <i type="string" name="SYSTEM">Simulation for cell shape cell volume r</i>
  <i type="int" name="ISTART">     1</i>
  <i type="string" name="PREC">high</i>
  <i type="string" name="ALGO">48</i>
  <i type="int" name="ICHARG">    11</i>
  <i type="int" name="NELM">   200</i>
  <i type="int" name="IBRION">    -1</i>
  <i name="EDIFF">      0.00001000</i>
  <i name="EDIFFG">     -0.01000000</i>
  <i type="int" name="NSW">     0</i>
  <i type="int" name="ISIF">     2</i>
  <i name="ENCUT">    500.00000000</i>
  <i name="POTIM">      0.30000000</i>
  <i type="string" name="LREAL">A</i>
  <i type="int" name="ISMEAR">     0</i>
  <i name="SIGMA">      0.01000000</i>
  <i type="int" name="NWRITE">     0</i>
  <i type="logical" name="LWAVE"> F  </i>
  <i type="logical" name="LCHARG"> F  </i>
  <v type="int" name="KPOINT_BSE">    -1     0     0     0</v>
  <i type="int" name="NELM">   200</i>
  <i type="string" name="GGA">PE</i>
 </incar>
 <structure name="primitive_cell" >
  <crystal>
   <varray name="basis" >
    <v>      23.14683588      -0.00170649       0.00000000 </v>
    <v>      11.57194015      20.04491126       0.00000000 </v>
    <v>       0.00051540       0.00029754      20.00000000 </v>
   </varray>
   <i name="volume">   9279.92037311 </i>
   <varray name="rec_basis" >
    <v>       0.04320061      -0.02493974      -0.00000074 </v>
    <v>       0.00000368       0.04988585      -0.00000074 </v>
    <v>       0.00000000       0.00000000       0.05000000 </v>
   </varray>
  </crystal>
  <varray name="positions" >
   <v>      -0.21307024       0.49237468      -0.38221179 </v>
   <v>      -0.23616550       0.49505189      -0.43070065 </v>
   <v>      -0.29326123       0.49342024      -0.43009388 </v>
   <v>      -0.20843989      -0.49653637      -0.48977242 </v>
   <v>      -0.16318087      -0.46830757      -0.48972955 </v>
   <v>      -0.32259968       0.49975189      -0.48970978 </v>
   <v>      -0.23643127       0.49550371       0.45112911 </v>
   <v>      -0.08435919       0.39716636      -0.48986305 </v>
   <v>      -0.19585565      -0.39859043      -0.48970668 </v>
   <v>      -0.09279521       0.49503646      -0.48972319 </v>
   <v>      -0.25031592      -0.37090124      -0.48972794 </v>
   <v>      -0.05637997       0.42361484      -0.48978344 </v>
   <v>      -0.29355728       0.49393803       0.45062449 </v>
   <v>      -0.21353865       0.49311810       0.40258796 </v>
   <v>      -0.39655846      -0.47177222      -0.48969368 </v>
   <v>      -0.40436155      -0.37541113      -0.48991867 </v>
   <v>      -0.16178356      -0.36306677      -0.48967518 </v>
   <v>      -0.05678062      -0.46932423      -0.48967593 </v>
   <v>      -0.43205545      -0.40219063      -0.48981529 </v>
   <v>       0.01172684       0.38896822      -0.48975420 </v>
   <v>      -0.34287404       0.39392119      -0.48973071 </v>
   <v>      -0.09158397      -0.39770624      -0.48965748 </v>
   <v>      -0.43116561       0.49263118      -0.48968118 </v>
   <v>       0.03880196       0.33454278      -0.48978485 </v>
   <v>      -0.20721255      -0.28906040      -0.48980494 </v>
   <v>      -0.23017407      -0.25959631      -0.43023662 </v>
   <v>      -0.39729982       0.42127298      -0.48971456 </v>
   <v>       0.01442269       0.49445772      -0.48966894 </v>
   <v>       0.04920541       0.42284349      -0.48969466 </v>
   <v>       0.49824165      -0.36521326      -0.48981898 </v>
   <v>      -0.40872109      -0.21695340      -0.48998726 </v>
   <v>      -0.05408843      -0.36383983      -0.48969498 </v>
   <v>      -0.28891406      -0.20251461      -0.43082161 </v>
   <v>      -0.23045008      -0.26004563       0.45048800 </v>
   <v>       0.49722726      -0.47057998      -0.48972402 </v>
   <v>       0.45864548      -0.27593120      -0.38233928 </v>
   <v>      -0.30925495      -0.17940399      -0.38231317 </v>
   <v>       0.46995552      -0.29175780      -0.48989669 </v>
   <v>       0.46146180      -0.25560334      -0.43083437 </v>
   <v>       0.05046447      -0.46993051      -0.48967429 </v>
   <v>      -0.43196061       0.38780337      -0.48976826 </v>
   <v>       0.46159774      -0.39894493      -0.48974558 </v>
   <v>      -0.08115534      -0.30941156      -0.48971593 </v>
   <v>      -0.32511125      -0.17488280      -0.48988688 </v>
   <v>       0.11939879       0.38814916      -0.48970534 </v>
   <v>      -0.28916292      -0.20294756       0.45101413 </v>
   <v>       0.01403599      -0.39849901      -0.48971853 </v>
   <v>      -0.43555899      -0.16248188      -0.48989577 </v>
   <v>      -0.40548974       0.33336965      -0.48981904 </v>
   <v>       0.45990869      -0.19692210      -0.43027455 </v>
   <v>       0.46204392      -0.25586824       0.45097526 </v>
   <v>       0.46100096       0.49444801      -0.48976559 </v>
   <v>       0.16457982       0.31410573      -0.48972491 </v>
   <v>      -0.39861547      -0.12969401      -0.48983687 </v>
   <v>       0.46633940      -0.17396629      -0.48988894 </v>
   <v>       0.49661111       0.42280060      -0.48978802 </v>
   <v>       0.45975290      -0.27644424       0.40244016 </v>
   <v>      -0.30972210      -0.18014320       0.40245495 </v>
   <v>       0.12085493       0.49335727      -0.48972290 </v>
   <v>       0.18748387       0.28473488      -0.43009167 </v>
   <v>       0.46045213      -0.19717003       0.45042375 </v>
   <v>       0.15351446       0.42362234      -0.48975149 </v>
   <v>       0.04198089      -0.37201181      -0.48979366 </v>
   <v>       0.49485572      -0.12849215      -0.48982328 </v>
   <v>       0.39018463      -0.36390294      -0.48976404 </v>
   <v>       0.18752775       0.28484689       0.45060522 </v>
   <v>       0.36375203      -0.30947316      -0.48976109 </v>
   <v>       0.38939610      -0.46870427      -0.48983005 </v>
   <v>       0.20797357       0.39592815      -0.48984189 </v>
   <v>       0.35552886      -0.39736005      -0.48981603 </v>
   <v>      -0.43245577      -0.05929185      -0.48976291 </v>
   <v>       0.45987739       0.38914319      -0.48990868 </v>
   <v>       0.24590297       0.22734117      -0.43067503 </v>
   <v>       0.16619959      -0.47852238      -0.48995509 </v>
   <v>       0.17069992      -0.46662369      -0.38250027 </v>
   <v>       0.45918940      -0.05829574      -0.48975871 </v>
   <v>       0.26617315       0.20418864      -0.38217183 </v>
   <v>      -0.34313743      -0.05062128      -0.48974209 </v>
   <v>       0.49875583       0.29987710      -0.38239611 </v>
   <v>       0.24599588       0.22750173       0.45114404 </v>
   <v>       0.48783923       0.31570085      -0.48998331 </v>
   <v>       0.19386156      -0.46969340      -0.43105317 </v>
   <v>       0.49589386      -0.02337867      -0.48974668 </v>
   <v>      -0.39757004      -0.02274591      -0.48975402 </v>
   <v>       0.49597757       0.27960704      -0.43094299 </v>
   <v>       0.35469806       0.49580067      -0.49002477 </v>
   <v>       0.28190732       0.19941622      -0.48976068 </v>
   <v>       0.39015034       0.42622667      -0.49006606 </v>
   <v>       0.30111137      -0.37001136      -0.48984910 </v>
   <v>       0.17154442      -0.46903701       0.40228819 </v>
   <v>       0.19442949      -0.47123160       0.45078412 </v>
   <v>       0.36054567      -0.04807229      -0.48977180 </v>
   <v>       0.26640574       0.20451673       0.40260923 </v>
   <v>       0.38783269      -0.02092819      -0.48974811 </v>
   <v>       0.49760458       0.30055297       0.40232615 </v>
   <v>       0.49523378       0.28000842       0.45085487 </v>
   <v>       0.29983472       0.07509330      -0.48970326 </v>
   <v>       0.36243260       0.39947402      -0.49020820 </v>
   <v>       0.25101663      -0.46815603      -0.43064627 </v>
   <v>       0.49710071       0.22112435      -0.43040869 </v>
   <v>      -0.43114133       0.04537610      -0.48976828 </v>
   <v>       0.46080435       0.04782649      -0.48974795 </v>
   <v>       0.28068182      -0.47542917      -0.49024358 </v>
   <v>       0.35535859       0.15411957      -0.48977177 </v>
   <v>       0.25178022      -0.47014447       0.45008253 </v>
   <v>       0.49614457       0.22163460       0.45026208 </v>
   <v>       0.36543719       0.24139226      -0.48996905 </v>
   <v>       0.35426528       0.04719585      -0.48972182 </v>
   <v>       0.49750682       0.08274234      -0.48978490 </v>
   <v>       0.49041268       0.19836213      -0.49003629 </v>
   <v>      -0.40388008       0.07254963      -0.48976074 </v>
   <v>       0.38915916       0.08373103      -0.48973124 </v>
   <v>       0.39228616       0.18692158      -0.48989614 </v>
   <v>       0.46184960       0.15294118      -0.48988685 </v>
  </varray>
 </structure>
 <varray name="primitive_index" >
  <v type="int" >        1 </v>
  <v type="int" >       43 </v>
  <v type="int" >       31 </v>
  <v type="int" >       55 </v>
  <v type="int" >       50 </v>
  <v type="int" >       73 </v>
  <v type="int" >       54 </v>
  <v type="int" >        4 </v>
  <v type="int" >       49 </v>
  <v type="int" >       51 </v>
  <v type="int" >        2 </v>
  <v type="int" >       53 </v>
  <v type="int" >       33 </v>
  <v type="int" >        5 </v>
  <v type="int" >       59 </v>
  <v type="int" >        6 </v>
  <v type="int" >       48 </v>
  <v type="int" >       46 </v>
  <v type="int" >       60 </v>
  <v type="int" >      110 </v>
  <v type="int" >        8 </v>
  <v type="int" >       47 </v>
  <v type="int" >       58 </v>
  <v type="int" >       28 </v>
  <v type="int" >       45 </v>
  <v type="int" >       32 </v>
  <v type="int" >       62 </v>
  <v type="int" >      103 </v>
  <v type="int" >      108 </v>
  <v type="int" >       61 </v>
  <v type="int" >        9 </v>
  <v type="int" >       52 </v>
  <v type="int" >       44 </v>
  <v type="int" >       34 </v>
  <v type="int" >       57 </v>
  <v type="int" >       12 </v>
  <v type="int" >       13 </v>
  <v type="int" >       98 </v>
  <v type="int" >       95 </v>
  <v type="int" >      104 </v>
  <v type="int" >       64 </v>
  <v type="int" >       79 </v>
  <v type="int" >        3 </v>
  <v type="int" >       76 </v>
  <v type="int" >      107 </v>
  <v type="int" >       56 </v>
  <v type="int" >      109 </v>
  <v type="int" >       67 </v>
  <v type="int" >        7 </v>
  <v type="int" >       37 </v>
  <v type="int" >       97 </v>
  <v type="int" >       81 </v>
  <v type="int" >      102 </v>
  <v type="int" >       68 </v>
  <v type="int" >       96 </v>
  <v type="int" >       63 </v>
  <v type="int" >       15 </v>
  <v type="int" >       16 </v>
  <v type="int" >      105 </v>
  <v type="int" >       40 </v>
  <v type="int" >       38 </v>
  <v type="int" >      106 </v>
  <v type="int" >       27 </v>
  <v type="int" >       66 </v>
  <v type="int" >       80 </v>
  <v type="int" >       42 </v>
  <v type="int" >       19 </v>
  <v type="int" >       85 </v>
  <v type="int" >       26 </v>
  <v type="int" >       86 </v>
  <v type="int" >       69 </v>
  <v type="int" >       82 </v>
  <v type="int" >      101 </v>
  <v type="int" >      112 </v>
  <v type="int" >       24 </v>
  <v type="int" >       87 </v>
  <v type="int" >       25 </v>
  <v type="int" >       11 </v>
  <v type="int" >       14 </v>
  <v type="int" >      113 </v>
  <v type="int" >       78 </v>
  <v type="int" >       99 </v>
  <v type="int" >       65 </v>
  <v type="int" >       70 </v>
  <v type="int" >       74 </v>
  <v type="int" >       84 </v>
  <v type="int" >      114 </v>
  <v type="int" >       83 </v>
  <v type="int" >       22 </v>
  <v type="int" >       29 </v>
  <v type="int" >      111 </v>
  <v type="int" >       21 </v>
  <v type="int" >       30 </v>
  <v type="int" >       88 </v>
  <v type="int" >       17 </v>
  <v type="int" >       77 </v>
  <v type="int" >       23 </v>
  <v type="int" >       18 </v>
  <v type="int" >       39 </v>
  <v type="int" >       35 </v>
  <v type="int" >       72 </v>
  <v type="int" >       89 </v>
  <v type="int" >      100 </v>
  <v type="int" >       91 </v>
  <v type="int" >       41 </v>
  <v type="int" >       36 </v>
  <v type="int" >       20 </v>
  <v type="int" >       94 </v>
  <v type="int" >       71 </v>
  <v type="int" >       75 </v>
  <v type="int" >       10 </v>
  <v type="int" >       90 </v>
  <v type="int" >       92 </v>
  <v type="int" >       93 </v>
 </varray>
 <kpoints>
  <generation param="listgenerated">
   <i name="divisions" type="int">      20 </i>
   <v>       0.00000000       0.00000000       0.00000000 </v>
   <v>       0.50000000       0.50000000       0.00000000 </v>
   <v>       0.33333333       0.66666667       0.00000000 </v>
   <v>       0.00000000       0.00000000       0.00000000 </v>
  </generation>
  <varray name="kpointlist" >
   <v>       0.00000000       0.00000000       0.00000000 </v>
   <v>       0.02631579       0.02631579       0.00000000 </v>
   <v>       0.05263158       0.05263158       0.00000000 </v>
   <v>       0.07894737       0.07894737       0.00000000 </v>
   <v>       0.10526316       0.10526316       0.00000000 </v>
   <v>       0.13157895       0.13157895       0.00000000 </v>
   <v>       0.15789474       0.15789474       0.00000000 </v>
   <v>       0.18421053       0.18421053       0.00000000 </v>
   <v>       0.21052632       0.21052632       0.00000000 </v>
   <v>       0.23684211       0.23684211       0.00000000 </v>
   <v>       0.26315789       0.26315789       0.00000000 </v>
   <v>       0.28947368       0.28947368       0.00000000 </v>
   <v>       0.31578947       0.31578947       0.00000000 </v>
   <v>       0.34210526       0.34210526       0.00000000 </v>
   <v>       0.36842105       0.36842105       0.00000000 </v>
   <v>       0.39473684       0.39473684       0.00000000 </v>
   <v>       0.42105263       0.42105263       0.00000000 </v>
   <v>       0.44736842       0.44736842       0.00000000 </v>
   <v>       0.47368421       0.47368421       0.00000000 </v>
   <v>       0.50000000       0.50000000       0.00000000 </v>
   <v>       0.50000000       0.50000000       0.00000000 </v>
   <v>       0.49122807       0.50877193       0.00000000 </v>
   <v>       0.48245614       0.51754386       0.00000000 </v>
   <v>       0.47368421       0.52631579       0.00000000 </v>
   <v>       0.46491228       0.53508772       0.00000000 </v>
   <v>       0.45614035       0.54385965       0.00000000 </v>
   <v>       0.44736842       0.55263158       0.00000000 </v>
   <v>       0.43859649       0.56140351       0.00000000 </v>
   <v>       0.42982456       0.57017544       0.00000000 </v>
   <v>       0.42105263       0.57894737       0.00000000 </v>
   <v>       0.41228070       0.58771930       0.00000000 </v>
   <v>       0.40350877       0.59649123       0.00000000 </v>
   <v>       0.39473684       0.60526316       0.00000000 </v>
   <v>       0.38596491       0.61403509       0.00000000 </v>
   <v>       0.37719298       0.62280702       0.00000000 </v>
   <v>       0.36842105       0.63157895       0.00000000 </v>
   <v>       0.35964912       0.64035088       0.00000000 </v>
   <v>       0.35087719       0.64912281       0.00000000 </v>
   <v>       0.34210526       0.65789474       0.00000000 </v>
   <v>       0.33333333       0.66666667       0.00000000 </v>
   <v>       0.33333333       0.66666667       0.00000000 </v>
   <v>       0.31578947       0.63157895       0.00000000 </v>
   <v>       0.29824561       0.59649123       0.00000000 </v>
   <v>       0.28070175       0.56140351       0.00000000 </v>
   <v>       0.26315789       0.52631579       0.00000000 </v>
   <v>       0.24561404       0.49122807       0.00000000 </v>
   <v>       0.22807018       0.45614035       0.00000000 </v>
   <v>       0.21052632       0.42105263       0.00000000 </v>
   <v>       0.19298246       0.38596491       0.00000000 </v>
   <v>       0.17543860       0.35087719       0.00000000 </v>
   <v>       0.15789474       0.31578947       0.00000000 </v>
   <v>       0.14035088       0.28070175       0.00000000 </v>
   <v>       0.12280702       0.24561404       0.00000000 </v>
   <v>       0.10526316       0.21052632       0.00000000 </v>
   <v>       0.08771930       0.17543860       0.00000000 </v>
   <v>       0.07017544       0.14035088       0.00000000 </v>
   <v>       0.05263158       0.10526316       0.00000000 </v>
   <v>       0.03508772       0.07017544       0.00000000 </v>
   <v>       0.01754386       0.03508772       0.00000000 </v>
   <v>       0.00000000       0.00000000       0.00000000 </v>
  </varray>
  <varray name="weights" >
   <v>       0.01666667 </v>
   <v>       0.01666667 </v>
   <v>       0.01666667 </v>
   <v>       0.01666667 </v>
   <v>       0.01666667 </v>
   <v>       0.01666667 </v>
   <v>       0.01666667 </v>
   <v>       0.01666667 </v>
   <v>       0.01666667 </v>
   <v>       0.01666667 </v>
   <v>       0.01666667 </v>
   <v>       0.01666667 </v>
   <v>       0.01666667 </v>
   <v>       0.01666667 </v>
   <v>       0.01666667 </v>
   <v>       0.01666667 </v>
   <v>       0.01666667 </v>
   <v>       0.01666667 </v>
   <v>       0.01666667 </v>
   <v>       0.01666667 </v>
   <v>       0.01666667 </v>
   <v>       0.01666667 </v>
   <v>       0.01666667 </v>
   <v>       0.01666667 </v>
   <v>       0.01666667 </v>
   <v>       0.01666667 </v>
   <v>       0.01666667 </v>
   <v>       0.01666667 </v>
   <v>       0.01666667 </v>
   <v>       0.01666667 </v>
   <v>       0.01666667 </v>
   <v>       0.01666667 </v>
   <v>       0.01666667 </v>
   <v>       0.01666667 </v>
   <v>       0.01666667 </v>
   <v>       0.01666667 </v>
   <v>       0.01666667 </v>
   <v>       0.01666667 </v>
   <v>       0.01666667 </v>
   <v>       0.01666667 </v>
   <v>       0.01666667 </v>
   <v>       0.01666667 </v>
   <v>       0.01666667 </v>
   <v>       0.01666667 </v>
   <v>       0.01666667 </v>
   <v>       0.01666667 </v>
   <v>       0.01666667 </v>
   <v>       0.01666667 </v>
   <v>       0.01666667 </v>
   <v>       0.01666667 </v>
   <v>       0.01666667 </v>
   <v>       0.01666667 </v>
   <v>       0.01666667 </v>
   <v>       0.01666667 </v>
   <v>       0.01666667 </v>
   <v>       0.01666667 </v>
   <v>       0.01666667 </v>
   <v>       0.01666667 </v>
   <v>       0.01666667 </v>
   <v>       0.01666667 </v>
  </varray>
 </kpoints>
 <parameters>
  <separator name="general" >
   <i type="string" name="SYSTEM">Simulation for cell shape cell volume r</i>
   <i type="logical" name="LCOMPAT"> F  </i>
  </separator>
  <separator name="electronic" >
   <i type="string" name="PREC">high</i>
   <i name="ENMAX">    500.00000000</i>
   <i name="ENAUG">    644.87300000</i>
   <i name="EDIFF">      0.00001000</i>
   <i type="int" name="IALGO">    38</i>
   <i type="int" name="IWAVPR">    10</i>
   <i type="int" name="NBANDS">   256</i>
   <i name="NELECT">    378.00000000</i>
   <i type="int" name="TURBO">     0</i>
   <i type="int" name="IRESTART">     0</i>
   <i type="int" name="NREBOOT">     0</i>
   <i type="int" name="NMIN">     0</i>
   <i name="EREF">      0.00000000</i>
   <separator name="electronic smearing" >
    <i type="int" name="ISMEAR">     0</i>
    <i name="SIGMA">      0.01000000</i>
    <i name="KSPACING">      0.50000000</i>
    <i type="logical" name="KGAMMA"> T  </i>
   </separator>
   <separator name="electronic projectors" >
    <i type="logical" name="LREAL"> T  </i>
    <v name="ROPT">     -0.00040000     -0.00040000     -0.00040000</v>
    <i type="int" name="LMAXPAW">  -100</i>
    <i type="int" name="LMAXMIX">     2</i>
    <i type="logical" name="NLSPLINE"> F  </i>
   </separator>
   <separator name="electronic startup" >
    <i type="int" name="ISTART">     1</i>
    <i type="int" name="ICHARG">    11</i>
    <i type="int" name="INIWAV">     1</i>
   </separator>
   <separator name="electronic spin" >
    <i type="int" name="ISPIN">     1</i>
    <i type="logical" name="LNONCOLLINEAR"> F  </i>
    <v name="MAGMOM">      1.00000000      1.00000000      1.00000000      1.00000000      1.00000000      1.00000000      1.00000000      1.00000000      1.00000000      1.00000000      1.00000000      1.00000000      1.00000000      1.00000000      1.00000000      1.00000000      1.00000000      1.00000000      1.00000000      1.00000000
      1.00000000      1.00000000      1.00000000      1.00000000      1.00000000      1.00000000      1.00000000      1.00000000      1.00000000      1.00000000      1.00000000      1.00000000      1.00000000      1.00000000      1.00000000      1.00000000      1.00000000      1.00000000      1.00000000      1.00000000
      1.00000000      1.00000000      1.00000000      1.00000000      1.00000000      1.00000000      1.00000000      1.00000000      1.00000000      1.00000000      1.00000000      1.00000000      1.00000000      1.00000000      1.00000000      1.00000000      1.00000000      1.00000000      1.00000000      1.00000000
      1.00000000      1.00000000      1.00000000      1.00000000      1.00000000      1.00000000      1.00000000      1.00000000      1.00000000      1.00000000      1.00000000      1.00000000      1.00000000      1.00000000      1.00000000      1.00000000      1.00000000      1.00000000      1.00000000      1.00000000
      1.00000000      1.00000000      1.00000000      1.00000000      1.00000000      1.00000000      1.00000000      1.00000000      1.00000000      1.00000000      1.00000000      1.00000000      1.00000000      1.00000000      1.00000000      1.00000000      1.00000000      1.00000000      1.00000000      1.00000000
      1.00000000      1.00000000      1.00000000      1.00000000      1.00000000      1.00000000      1.00000000      1.00000000      1.00000000      1.00000000      1.00000000      1.00000000      1.00000000      1.00000000</v>
    <i name="NUPDOWN">     -1.00000000</i>
    <i type="logical" name="LSORBIT"> F  </i>
    <v name="SAXIS">      0.00000000      0.00000000      1.00000000</v>
    <i type="logical" name="LSPIRAL"> F  </i>
    <v name="QSPIRAL">      0.00000000      0.00000000      0.00000000</v>
    <i type="logical" name="LZEROZ"> F  </i>
   </separator>
   <separator name="electronic exchange-correlation" >
    <i type="logical" name="LASPH"> F  </i>
    <i type="logical" name="LMETAGGA"> F  </i>
   </separator>
   <separator name="electronic convergence" >
    <i type="int" name="NELM">   200</i>
    <i type="int" name="NELMDL">     0</i>
    <i type="int" name="NELMIN">     2</i>
    <i name="ENINI">    500.00000000</i>
    <separator name="electronic convergence detail" >
     <i type="logical" name="LDIAG"> T  </i>
     <i type="logical" name="LSUBROT"> F  </i>
     <i name="WEIMIN">      0.00000000</i>
     <i name="EBREAK">      0.00000001</i>
     <i name="DEPER">      0.30000000</i>
     <i type="int" name="NRMM">     4</i>
     <i name="TIME">      0.40000000</i>
    </separator>
   </separator>
   <separator name="electronic mixer" >
    <i name="AMIX">      0.40000000</i>
    <i name="BMIX">      1.00000000</i>
    <i name="AMIN">      0.10000000</i>
    <i name="AMIX_MAG">      1.60000000</i>
    <i name="BMIX_MAG">      1.00000000</i>
    <separator name="electronic mixer details" >
     <i type="int" name="IMIX">     4</i>
     <i type="logical" name="MIXFIRST"> F  </i>
     <i type="int" name="MAXMIX">   -45</i>
     <i name="WC">    100.00000000</i>
     <i type="int" name="INIMIX">     1</i>
     <i type="int" name="MIXPRE">     1</i>
     <i type="int" name="MREMOVE">     5</i>
    </separator>
   </separator>
   <separator name="electronic dipolcorrection" >
    <i type="logical" name="LDIPOL"> F  </i>
    <i type="logical" name="LMONO"> F  </i>
    <i type="int" name="IDIPOL">     0</i>
    <i name="EPSILON">      1.00000000</i>
    <v name="DIPOL">   -100.00000000   -100.00000000   -100.00000000</v>
    <i name="EFIELD">      0.00000000</i>
   </separator>
  </separator>
  <separator name="grids" >
   <i type="int" name="NGX">   180</i>
   <i type="int" name="NGY">   180</i>
   <i type="int" name="NGZ">   150</i>
   <i type="int" name="NGXF">   256</i>
   <i type="int" name="NGYF">   256</i>
   <i type="int" name="NGZF">   224</i>
   <i type="logical" name="ADDGRID"> F  </i>
  </separator>
  <separator name="ionic" >
   <i type="int" name="NSW">     0</i>
   <i type="int" name="IBRION">    -1</i>
   <i type="int" name="MDALGO">     0</i>
   <i type="int" name="ISIF">     2</i>
   <i name="PSTRESS">      0.00000000</i>
   <i name="EDIFFG">     -0.01000000</i>
   <i type="int" name="NFREE">     0</i>
   <i name="POTIM">      0.30000000</i>
   <i name="SMASS">     -3.00000000</i>
   <i name="SCALEE">      1.00000000</i>
  </separator>
  <separator name="ionic md" >
   <i name="TEBEG">      0.00010000</i>
   <i name="TEEND">      0.00010000</i>
   <i type="int" name="NBLOCK">     1</i>
   <i type="int" name="KBLOCK">     1</i>
   <i type="int" name="NPACO">   256</i>
   <i name="APACO">     16.00000000</i>
  </separator>
  <separator name="symmetry" >
   <i type="int" name="ISYM">     2</i>
   <i name="SYMPREC">      0.00001000</i>
  </separator>
  <separator name="dos" >
   <i type="int" name="LORBIT">     0</i>
   <v name="RWIGS">     -1.00000000     -1.00000000     -1.00000000</v>
   <i type="int" name="NEDOS">   301</i>
   <i name="EMIN">     10.00000000</i>
   <i name="EMAX">    -10.00000000</i>
   <i name="EFERMI">      0.00000000</i>
  </separator>
  <separator name="writing" >
   <i type="int" name="NWRITE">     0</i>
   <i type="logical" name="LWAVE"> F  </i>
   <i type="logical" name="LDOWNSAMPLE"> F  </i>
   <i type="logical" name="LCHARG"> F  </i>
   <i type="logical" name="LPARD"> F  </i>
   <i type="logical" name="LVTOT"> F  </i>
   <i type="logical" name="LVHAR"> F  </i>
   <i type="logical" name="LELF"> F  </i>
   <i type="logical" name="LOPTICS"> F  </i>
   <v name="STM">      0.00000000      0.00000000      0.00000000      0.00000000      0.00000000      0.00000000      0.00000000</v>
  </separator>
  <separator name="performance" >
   <i type="int" name="NPAR">    16</i>
   <i type="int" name="NSIM">     4</i>
   <i type="int" name="NBLK">    -1</i>
   <i type="logical" name="LPLANE"> T  </i>
   <i type="logical" name="LSCALAPACK"> T  </i>
   <i type="logical" name="LSCAAWARE"> F  </i>
   <i type="logical" name="LSCALU"> F  </i>
   <i type="logical" name="LASYNC"> F  </i>
   <i type="logical" name="LORBITALREAL"> F  </i>
  </separator>
  <separator name="miscellaneous" >
   <i type="int" name="IDIOT">     3</i>
   <i type="int" name="ISPECIAL">     0</i>
   <i type="logical" name="LMUSIC"> F  </i>
   <v name="POMASS">      1.00000000     14.00100000     12.01100000</v>
   <v name="DARWINR">      0.00000000      0.00000000      0.00000000</v>
   <v name="DARWINV">      1.00000000      1.00000000      1.00000000</v>
   <i type="logical" name="LCORR"> T  </i>
  </separator>
  <i type="logical" name="GGA_COMPAT"> T  </i>
  <i type="logical" name="LBERRY"> F  </i>
  <i type="int" name="ICORELEVEL">     0</i>
  <i type="logical" name="LDAU"> F  </i>
  <i type="int" name="I_CONSTRAINED_M">     0</i>
  <separator name="electronic exchange-correlation" >
   <i type="string" name="GGA">PE</i>
   <i type="int" name="VOSKOWN">     0</i>
   <i type="logical" name="LHFCALC"> F  </i>
   <i type="string" name="PRECFOCK"></i>
   <i type="logical" name="LSYMGRAD"> F  </i>
   <i type="logical" name="LHFONE"> F  </i>
   <i type="logical" name="LRHFCALC"> F  </i>
   <i type="logical" name="LTHOMAS"> F  </i>
   <i type="logical" name="LMODELHF"> F  </i>
   <i name="ENCUT4O">     -1.00000000</i>
   <i type="int" name="EXXOEP">     0</i>
   <i type="int" name="FOURORBIT">     0</i>
   <i name="AEXX">      0.00000000</i>
   <i name="HFALPHA">      0.00000000</i>
   <i name="MCALPHA">      0.00000000</i>
   <i name="ALDAX">      1.00000000</i>
   <i name="AGGAX">      1.00000000</i>
   <i name="ALDAC">      1.00000000</i>
   <i name="AGGAC">      1.00000000</i>
   <i type="int" name="NKREDX">     1</i>
   <i type="int" name="NKREDY">     1</i>
   <i type="int" name="NKREDZ">     1</i>
   <i type="logical" name="SHIFTRED"> F  </i>
   <i type="logical" name="ODDONLY"> F  </i>
   <i type="logical" name="EVENONLY"> F  </i>
   <i type="int" name="LMAXFOCK">     0</i>
   <i type="int" name="NMAXFOCKAE">     0</i>
   <i type="logical" name="LFOCKAEDFT"> F  </i>
   <i name="HFSCREEN">      0.00000000</i>
   <i name="HFSCREENC">      0.00000000</i>
   <i type="int" name="NBANDSGWLOW">     0</i>
  </separator>
  <separator name="vdW DFT" >
   <i type="logical" name="LUSE_VDW"> F  </i>
   <i name="Zab_VDW">     -0.84910000</i>
   <i name="PARAM1">      0.12340000</i>
   <i name="PARAM2">      1.00000000</i>
   <i name="PARAM3">      0.00000000</i>
  </separator>
  <separator name="model GW" >
   <i type="int" name="MODEL_GW">     0</i>
   <i name="MODEL_EPS0">     48.84168617</i>
   <i name="MODEL_ALPHA">      1.00000000</i>
  </separator>
  <separator name="linear response parameters" >
   <i type="logical" name="LEPSILON"> F  </i>
   <i type="logical" name="LRPA"> F  </i>
   <i type="logical" name="LNABLA"> F  </i>
   <i type="logical" name="LVEL"> F  </i>
   <i type="int" name="KINTER">     0</i>
   <i name="CSHIFT">      0.10000000</i>
   <i name="OMEGAMAX">     -1.00000000</i>
   <i name="DEG_THRESHOLD">      0.00200000</i>
   <i name="RTIME">     -0.10000000</i>
   <i name="WPLASMAI">      0.00000000</i>
   <v name="DFIELD">      0.00000000      0.00000000      0.00000000</v>
   <v name="WPLASMA">      0.00000000      0.00000000      0.00000000      0.00000000      0.00000000      0.00000000      0.00000000      0.00000000      0.00000000</v>
  </separator>
  <separator name="orbital magnetization" >
   <i type="logical" name="NUCIND"> F  </i>
   <v name="MAGPOS">      0.00000000      0.00000000      0.00000000</v>
   <i type="logical" name="LNICSALL"> T  </i>
   <i type="logical" name="ORBITALMAG"> F  </i>
   <i type="logical" name="LMAGBLOCH"> F  </i>
   <i type="logical" name="LCHIMAG"> F  </i>
   <i type="logical" name="LGAUGE"> T  </i>
   <i type="int" name="MAGATOM">     0</i>
   <v name="MAGDIPOL">      0.00000000      0.00000000      0.00000000</v>
   <v name="AVECCONST">      0.00000000      0.00000000      0.00000000</v>
  </separator>
  <separator name="response functions" >
   <i type="logical" name="LADDER"> F  </i>
   <i type="logical" name="LRPAFORCE"> F  </i>
   <i type="logical" name="LFXC"> F  </i>
   <i type="logical" name="LHARTREE"> T  </i>
   <i type="int" name="IBSE">     0</i>
   <v type="int" name="KPOINT">    -1     0     0     0</v>
   <i type="logical" name="LTCTE"> F  </i>
   <i type="logical" name="LTETE"> F  </i>
   <i type="logical" name="LTRIPLET"> F  </i>
   <i type="logical" name="LFXCEPS"> F  </i>
   <i type="logical" name="LFXHEG"> F  </i>
   <i type="int" name="NATURALO">     2</i>
   <i type="logical" name="L2ORDER"> F  </i>
   <i type="logical" name="LMP2LT"> F  </i>
   <i type="logical" name="LUSEW"> F  </i>
   <i name="ENCUTGW">     -2.00000000</i>
   <i name="ENCUTGWSOFT">     -2.00000000</i>
   <i name="ENCUTLF">     -1.00000000</i>
   <i type="int" name="LMAXMP2">    -1</i>
   <i name="SCISSOR">      0.00000000</i>
   <i type="int" name="NOMEGA">     0</i>
   <i type="int" name="NOMEGAR">     0</i>
   <i type="int" name="NBANDSGW">    -1</i>
   <i type="int" name="NBANDSO">    -1</i>
   <i type="int" name="NBANDSV">    -1</i>
   <i type="int" name="NELM">   200</i>
   <i type="int" name="NELMHF">     1</i>
   <i type="int" name="DIM">     3</i>
   <i type="int" name="ANTIRES">     0</i>
   <i name="OMEGAMAX">    -30.00000000</i>
   <i name="OMEGAMIN">    -30.00000000</i>
   <i name="OMEGATL">   -200.00000000</i>
   <i type="int" name="OMEGAGRID">   140</i>
   <i name="CSHIFT">     -0.10000000</i>
   <i type="logical" name="SELFENERGY"> F  </i>
   <i type="logical" name="LSPECTRAL"> F  </i>
   <i type="logical" name="LSPECTRALGW"> F  </i>
   <i type="logical" name="LSINGLES"> F  </i>
   <i type="logical" name="LFERMIGW"> F  </i>
   <i type="logical" name="ODDONLYGW"> F  </i>
   <i type="logical" name="EVENONLYGW"> F  </i>
   <i type="int" name="NKREDLFX">     1</i>
   <i type="int" name="NKREDLFY">     1</i>
   <i type="int" name="NKREDLFZ">     1</i>
   <i type="int" name="MAXMEM">  2800</i>
   <i type="int" name="TELESCOPE">     0</i>
   <i type="int" name="TAUPAR">     1</i>
   <i type="int" name="OMEGAPAR">    -1</i>
   <i name="LAMBDA">      1.00000000</i>
  </separator>
  <separator name="External order field" >
   <i name="OFIELD_KAPPA">      0.00000000</i>
   <v name="OFIELD_K">      0.00000000      0.00000000      0.00000000</v>
   <i name="OFIELD_Q6_NEAR">      0.00000000</i>
   <i name="OFIELD_Q6_FAR">      0.00000000</i>
   <i name="OFIELD_A">      0.00000000</i>
  </separator>
  <separator name="solvation model" >
   <i type="logical" name="LSOL"> F  </i>
  </separator>
 </parameters>
 <atominfo>
  <atoms>     114 </atoms>
  <types>       3 </types>
  <array name="atoms" >
   <dimension dim="1">ion</dimension>
   <field type="string">element</field>
   <field type="int">atomtype</field>
   <set>
    <rc><c>H </c><c>   1</c></rc>
    <rc><c>H </c><c>   1</c></rc>
    <rc><c>H </c><c>   1</c></rc>
    <rc><c>H </c><c>   1</c></rc>
    <rc><c>H </c><c>   1</c></rc>
    <rc><c>H </c><c>   1</c></rc>
    <rc><c>H </c><c>   1</c></rc>
    <rc><c>H </c><c>   1</c></rc>
    <rc><c>H </c><c>   1</c></rc>
    <rc><c>H </c><c>   1</c></rc>
    <rc><c>H </c><c>   1</c></rc>
    <rc><c>H </c><c>   1</c></rc>
    <rc><c>H </c><c>   1</c></rc>
    <rc><c>H </c><c>   1</c></rc>
    <rc><c>H </c><c>   1</c></rc>
    <rc><c>H </c><c>   1</c></rc>
    <rc><c>H </c><c>   1</c></rc>
    <rc><c>H </c><c>   1</c></rc>
    <rc><c>H </c><c>   1</c></rc>
    <rc><c>H </c><c>   1</c></rc>
    <rc><c>H </c><c>   1</c></rc>
    <rc><c>H </c><c>   1</c></rc>
    <rc><c>H </c><c>   1</c></rc>
    <rc><c>H </c><c>   1</c></rc>
    <rc><c>H </c><c>   1</c></rc>
    <rc><c>H </c><c>   1</c></rc>
    <rc><c>H </c><c>   1</c></rc>
    <rc><c>H </c><c>   1</c></rc>
    <rc><c>H </c><c>   1</c></rc>
    <rc><c>H </c><c>   1</c></rc>
    <rc><c>N </c><c>   2</c></rc>
    <rc><c>N </c><c>   2</c></rc>
    <rc><c>N </c><c>   2</c></rc>
    <rc><c>N </c><c>   2</c></rc>
    <rc><c>N </c><c>   2</c></rc>
    <rc><c>N </c><c>   2</c></rc>
    <rc><c>N </c><c>   2</c></rc>
    <rc><c>N </c><c>   2</c></rc>
    <rc><c>N </c><c>   2</c></rc>
    <rc><c>N </c><c>   2</c></rc>
    <rc><c>N </c><c>   2</c></rc>
    <rc><c>N </c><c>   2</c></rc>
    <rc><c>C </c><c>   3</c></rc>
    <rc><c>C </c><c>   3</c></rc>
    <rc><c>C </c><c>   3</c></rc>
    <rc><c>C </c><c>   3</c></rc>
    <rc><c>C </c><c>   3</c></rc>
    <rc><c>C </c><c>   3</c></rc>
    <rc><c>C </c><c>   3</c></rc>
    <rc><c>C </c><c>   3</c></rc>
    <rc><c>C </c><c>   3</c></rc>
    <rc><c>C </c><c>   3</c></rc>
    <rc><c>C </c><c>   3</c></rc>
    <rc><c>C </c><c>   3</c></rc>
    <rc><c>C </c><c>   3</c></rc>
    <rc><c>C </c><c>   3</c></rc>
    <rc><c>C </c><c>   3</c></rc>
    <rc><c>C </c><c>   3</c></rc>
    <rc><c>C </c><c>   3</c></rc>
    <rc><c>C </c><c>   3</c></rc>
    <rc><c>C </c><c>   3</c></rc>
    <rc><c>C </c><c>   3</c></rc>
    <rc><c>C </c><c>   3</c></rc>
    <rc><c>C </c><c>   3</c></rc>
    <rc><c>C </c><c>   3</c></rc>
    <rc><c>C </c><c>   3</c></rc>
    <rc><c>C </c><c>   3</c></rc>
    <rc><c>C </c><c>   3</c></rc>
    <rc><c>C </c><c>   3</c></rc>
    <rc><c>C </c><c>   3</c></rc>
    <rc><c>C </c><c>   3</c></rc>
    <rc><c>C </c><c>   3</c></rc>
    <rc><c>C </c><c>   3</c></rc>
    <rc><c>C </c><c>   3</c></rc>
    <rc><c>C </c><c>   3</c></rc>
    <rc><c>C </c><c>   3</c></rc>
    <rc><c>C </c><c>   3</c></rc>
    <rc><c>C </c><c>   3</c></rc>
    <rc><c>C </c><c>   3</c></rc>
    <rc><c>C </c><c>   3</c></rc>
    <rc><c>C </c><c>   3</c></rc>
    <rc><c>C </c><c>   3</c></rc>
    <rc><c>C </c><c>   3</c></rc>
    <rc><c>C </c><c>   3</c></rc>
    <rc><c>C </c><c>   3</c></rc>
    <rc><c>C </c><c>   3</c></rc>
    <rc><c>C </c><c>   3</c></rc>
    <rc><c>C </c><c>   3</c></rc>
    <rc><c>C </c><c>   3</c></rc>
    <rc><c>C </c><c>   3</c></rc>
    <rc><c>C </c><c>   3</c></rc>
    <rc><c>C </c><c>   3</c></rc>
    <rc><c>C </c><c>   3</c></rc>
    <rc><c>C </c><c>   3</c></rc>
    <rc><c>C </c><c>   3</c></rc>
    <rc><c>C </c><c>   3</c></rc>
    <rc><c>C </c><c>   3</c></rc>
    <rc><c>C </c><c>   3</c></rc>
    <rc><c>C </c><c>   3</c></rc>
    <rc><c>C </c><c>   3</c></rc>
    <rc><c>C </c><c>   3</c></rc>
    <rc><c>C </c><c>   3</c></rc>
    <rc><c>C </c><c>   3</c></rc>
    <rc><c>C </c><c>   3</c></rc>
    <rc><c>C </c><c>   3</c></rc>
    <rc><c>C </c><c>   3</c></rc>
    <rc><c>C </c><c>   3</c></rc>
    <rc><c>C </c><c>   3</c></rc>
    <rc><c>C </c><c>   3</c></rc>
    <rc><c>C </c><c>   3</c></rc>
    <rc><c>C </c><c>   3</c></rc>
    <rc><c>C </c><c>   3</c></rc>
    <rc><c>C </c><c>   3</c></rc>
    <rc><c>C </c><c>   3</c></rc>
   </set>
  </array>
  <array name="atomtypes" >
   <dimension dim="1">type</dimension>
   <field type="int">atomspertype</field>
   <field type="string">element</field>
   <field>mass</field>
   <field>valence</field>
   <field type="string">pseudopotential</field>
   <set>
    <rc><c>  30</c><c>H </c><c>      1.00000000</c><c>      1.00000000</c><c>  PAW_PBE H 15Jun2001                   </c></rc>
    <rc><c>  12</c><c>N </c><c>     14.00100000</c><c>      5.00000000</c><c>  PAW_PBE N 08Apr2002                   </c></rc>
    <rc><c>  72</c><c>C </c><c>     12.01100000</c><c>      4.00000000</c><c>  PAW_PBE C 08Apr2002                   </c></rc>
   </set>
  </array>
 </atominfo>
 <structure name="initialpos" >
  <crystal>
   <varray name="basis" >
    <v>      23.14683588      -0.00170649       0.00000000 </v>
    <v>      11.57194015      20.04491126       0.00000000 </v>
    <v>       0.00051540       0.00029754      20.00000000 </v>
   </varray>
   <i name="volume">   9279.92037311 </i>
   <varray name="rec_basis" >
    <v>       0.04320061      -0.02493974      -0.00000074 </v>
    <v>       0.00000368       0.04988585      -0.00000074 </v>
    <v>       0.00000000       0.00000000       0.05000000 </v>
   </varray>
  </crystal>
  <varray name="positions" >
   <v>       0.78692976       0.49237468       0.61778821 </v>
   <v>       0.74968408       0.62909876       0.51027206 </v>
   <v>       0.91884466       0.69058844       0.51028407 </v>
   <v>       0.91564081       0.39716636       0.51013695 </v>
   <v>       0.78646135       0.49311810       0.40258796 </v>
   <v>       0.59563845       0.62458887       0.51008133 </v>
   <v>       0.59451026       0.33336965       0.51018096 </v>
   <v>       0.65712596       0.39392119       0.51026929 </v>
   <v>       0.59127891       0.78304660       0.51001274 </v>
   <v>       0.59611992       0.07254963       0.51023926 </v>
   <v>       0.65686257       0.94937872       0.51025791 </v>
   <v>       0.45864548       0.72406880       0.61766072 </v>
   <v>       0.69074505       0.82059601       0.61768683 </v>
   <v>       0.49875583       0.29987710       0.61760389 </v>
   <v>       0.45975290       0.72355576       0.40244016 </v>
   <v>       0.69027790       0.81985680       0.40245495 </v>
   <v>       0.49760458       0.30055297       0.40232615 </v>
   <v>       0.36243260       0.39947402       0.50979180 </v>
   <v>       0.36375203       0.69052684       0.51023891 </v>
   <v>       0.36543719       0.24139226       0.51003095 </v>
   <v>       0.36054567       0.95192771       0.51022820 </v>
   <v>       0.30111137       0.62998864       0.51015090 </v>
   <v>       0.29983472       0.07509330       0.51029674 </v>
   <v>       0.17069992       0.53337631       0.61749973 </v>
   <v>       0.26617315       0.20418864       0.61782817 </v>
   <v>       0.20797357       0.39592815       0.51015811 </v>
   <v>       0.04198089       0.62798819       0.51020634 </v>
   <v>       0.03880196       0.33454278       0.51021515 </v>
   <v>       0.17154442       0.53096299       0.40228819 </v>
   <v>       0.26640574       0.20451673       0.40260923 </v>
   <v>       0.70673877       0.49342024       0.56990612 </v>
   <v>       0.76982593       0.74040369       0.56976338 </v>
   <v>       0.70644272       0.49393803       0.45062449 </v>
   <v>       0.76954992       0.73995437       0.45048800 </v>
   <v>       0.49710071       0.22112435       0.56959131 </v>
   <v>       0.49614457       0.22163460       0.45026208 </v>
   <v>       0.45990869       0.80307790       0.56972545 </v>
   <v>       0.46045213       0.80282997       0.45042375 </v>
   <v>       0.25101663       0.53184397       0.56935373 </v>
   <v>       0.18748387       0.28473488       0.56990833 </v>
   <v>       0.25178022       0.52985553       0.45008253 </v>
   <v>       0.18752775       0.28484689       0.45060522 </v>
   <v>       0.76383450       0.49505189       0.56929935 </v>
   <v>       0.71108594       0.79748539       0.56917839 </v>
   <v>       0.79278745       0.71093960       0.51019506 </v>
   <v>       0.94321938       0.53067577       0.51032407 </v>
   <v>       0.90841603       0.60229376       0.51034252 </v>
   <v>       0.83821644       0.63693323       0.51032482 </v>
   <v>       0.80414435       0.60140957       0.51029332 </v>
   <v>       0.83681913       0.53169243       0.51027045 </v>
   <v>       0.90720479       0.49503646       0.51027681 </v>
   <v>       0.94591157       0.63616017       0.51030502 </v>
   <v>       0.94362003       0.42361484       0.51021656 </v>
   <v>       0.76356873       0.49550371       0.45112911 </v>
   <v>       0.79156011       0.50346363       0.51022758 </v>
   <v>       0.71083708       0.79705244       0.45101413 </v>
   <v>       0.49722726       0.52942002       0.51027598 </v>
   <v>       0.56883439       0.49263118       0.51031882 </v>
   <v>       0.60344154       0.52822778       0.51030632 </v>
   <v>       0.56794455       0.59780937       0.51018471 </v>
   <v>       0.49824165       0.63478674       0.51018102 </v>
   <v>       0.60270018       0.42127298       0.51028544 </v>
   <v>       0.49661111       0.42280060       0.51021198 </v>
   <v>       0.56803939       0.38780337       0.51023174 </v>
   <v>       0.49589386       0.97662133       0.51025332 </v>
   <v>       0.49485572       0.87150785       0.51017672 </v>
   <v>       0.56444101       0.83751812       0.51010423 </v>
   <v>       0.60138453       0.87030599       0.51016313 </v>
   <v>       0.56754423       0.94070815       0.51023709 </v>
   <v>       0.60242996       0.97725409       0.51024598 </v>
   <v>       0.49750682       0.08274234       0.51021510 </v>
   <v>       0.56885867       0.04537610       0.51023172 </v>
   <v>       0.67740032       0.49975189       0.51029022 </v>
   <v>       0.49597757       0.27960704       0.56905701 </v>
   <v>       0.49041268       0.19836213       0.50996371 </v>
   <v>       0.67488875       0.82511720       0.51011312 </v>
   <v>       0.49523378       0.28000842       0.45085487 </v>
   <v>       0.48783923       0.31570085       0.51001669 </v>
   <v>       0.46159774       0.60105507       0.51025442 </v>
   <v>       0.39018463       0.63609706       0.51023596 </v>
   <v>       0.46100096       0.49444801       0.51023441 </v>
   <v>       0.45987739       0.38914319       0.51009132 </v>
   <v>       0.39015034       0.42622667       0.50993394 </v>
   <v>       0.35469806       0.49580067       0.50997523 </v>
   <v>       0.38939610       0.53129573       0.51016995 </v>
   <v>       0.35552886       0.60263995       0.51018397 </v>
   <v>       0.45918940       0.94170426       0.51024129 </v>
   <v>       0.38783269       0.97907181       0.51025189 </v>
   <v>       0.46080435       0.04782649       0.51025205 </v>
   <v>       0.38915916       0.08373103       0.51026876 </v>
   <v>       0.35535859       0.15411957       0.51022823 </v>
   <v>       0.39228616       0.18692158       0.51010386 </v>
   <v>       0.46184960       0.15294118       0.51011315 </v>
   <v>       0.35426528       0.04719585       0.51027818 </v>
   <v>       0.46146180       0.74439666       0.56916563 </v>
   <v>       0.46633940       0.82603371       0.51011106 </v>
   <v>       0.46204392       0.74413176       0.45097526 </v>
   <v>       0.46995552       0.70824220       0.51010331 </v>
   <v>       0.19386156       0.53030660       0.56894683 </v>
   <v>       0.28068182       0.52457083       0.50975642 </v>
   <v>       0.24590297       0.22734117       0.56932497 </v>
   <v>       0.16457982       0.31410573       0.51027509 </v>
   <v>       0.01442269       0.49445772       0.51033106 </v>
   <v>       0.05046447       0.53006949       0.51032571 </v>
   <v>       0.12085493       0.49335727       0.51027710 </v>
   <v>       0.15351446       0.42362234       0.51024851 </v>
   <v>       0.11939879       0.38814916       0.51029466 </v>
   <v>       0.04920541       0.42284349       0.51030534 </v>
   <v>       0.01403599       0.60150099       0.51028147 </v>
   <v>       0.01172684       0.38896822       0.51024580 </v>
   <v>       0.19442949       0.52876840       0.45078412 </v>
   <v>       0.16619959       0.52147762       0.51004491 </v>
   <v>       0.24599588       0.22750173       0.45114404 </v>
   <v>       0.28190732       0.19941622       0.51023932 </v>
  </varray>
 </structure>
 <calculation>
  <scstep>
   <time name="dav">  430.20  434.78</time>
   <time name="total">  430.35  434.94</time>
   <energy>
    <i name="alphaZ">     73.73980817 </i>
    <i name="ewald">  47945.91869794 </i>
    <i name="hartreedc"> -59549.78836382 </i>
    <i name="XCdc">   1311.59773096 </i>
    <i name="pawpsdc">  36117.88873689 </i>
    <i name="pawaedc"> -36184.36931917 </i>
    <i name="eentropy">     -0.00000000 </i>
    <i name="bandstr">  -4711.88031660 </i>
    <i name="atom">  14143.69745030 </i>
    <i name="e_fr_energy">   -853.19557534 </i>
    <i name="e_wo_entrp">   -853.19557534 </i>
    <i name="e_0_energy">   -853.19557534 </i>
   </energy>
  </scstep>
  <scstep>
   <time name="dav">  483.31  488.47</time>
   <time name="total">  483.31  488.47</time>
   <energy>
    <i name="e_fr_energy">   -853.93885352 </i>
    <i name="e_wo_entrp">   -853.93885352 </i>
    <i name="e_0_energy">   -853.93885352 </i>
   </energy>
  </scstep>
  <scstep>
   <time name="dav">  517.81  523.20</time>
   <time name="total">  517.81  523.20</time>
   <energy>
    <i name="e_fr_energy">   -853.95721520 </i>
    <i name="e_wo_entrp">   -853.95721520 </i>
    <i name="e_0_energy">   -853.95721520 </i>
   </energy>
  </scstep>
  <scstep>
   <time name="dav">  479.67  484.61</time>
   <time name="total">  479.67  484.61</time>
   <energy>
    <i name="e_fr_energy">   -853.95761205 </i>
    <i name="e_wo_entrp">   -853.95761205 </i>
    <i name="e_0_energy">   -853.95761205 </i>
   </energy>
  </scstep>
  <scstep>
   <time name="dav">  482.72  487.70</time>
   <time name="total">  482.72  487.70</time>
   <energy>
    <i name="e_fr_energy">   -853.95763248 </i>
    <i name="e_wo_entrp">   -853.95763248 </i>
    <i name="e_0_energy">   -853.95763248 </i>
   </energy>
  </scstep>
  <scstep>
   <time name="dav">  365.37  369.14</time>
   <time name="total">  365.37  369.14</time>
   <energy>
    <i name="alphaZ">     73.73980817 </i>
    <i name="ewald">  47945.91869794 </i>
    <i name="hartreedc"> -59549.78836382 </i>
    <i name="XCdc">   1311.59773096 </i>
    <i name="pawpsdc">  36117.88873689 </i>
    <i name="pawaedc"> -36184.36931917 </i>
    <i name="eentropy">     -0.00000000 </i>
    <i name="bandstr">  -4712.64237421 </i>
    <i name="atom">  14143.69745030 </i>
    <i name="e_fr_energy">   -853.95763295 </i>
    <i name="e_wo_entrp">   -853.95763295 </i>
    <i name="e_0_energy">   -853.95763295 </i>
   </energy>
  </scstep>
  <structure>
   <crystal>
    <varray name="basis" >
     <v>      23.14683588      -0.00170649       0.00000000 </v>
     <v>      11.57194015      20.04491126       0.00000000 </v>
     <v>       0.00051540       0.00029754      20.00000000 </v>
    </varray>
    <i name="volume">   9279.92037311 </i>
    <varray name="rec_basis" >
     <v>       0.04320061      -0.02493974      -0.00000074 </v>
     <v>       0.00000368       0.04988585      -0.00000074 </v>
     <v>       0.00000000       0.00000000       0.05000000 </v>
    </varray>
   </crystal>
   <varray name="positions" >
    <v>       0.78692976       0.49237468       0.61778821 </v>
    <v>       0.74968408       0.62909876       0.51027206 </v>
    <v>       0.91884466       0.69058844       0.51028407 </v>
    <v>       0.91564081       0.39716636       0.51013695 </v>
    <v>       0.78646135       0.49311810       0.40258796 </v>
    <v>       0.59563845       0.62458887       0.51008133 </v>
    <v>       0.59451026       0.33336965       0.51018096 </v>
    <v>       0.65712596       0.39392119       0.51026929 </v>
    <v>       0.59127891       0.78304660       0.51001274 </v>
    <v>       0.59611992       0.07254963       0.51023926 </v>
    <v>       0.65686257       0.94937872       0.51025791 </v>
    <v>       0.45864548       0.72406880       0.61766072 </v>
    <v>       0.69074505       0.82059601       0.61768683 </v>
    <v>       0.49875583       0.29987710       0.61760389 </v>
    <v>       0.45975290       0.72355576       0.40244016 </v>
    <v>       0.69027790       0.81985680       0.40245495 </v>
    <v>       0.49760458       0.30055297       0.40232615 </v>
    <v>       0.36243260       0.39947402       0.50979180 </v>
    <v>       0.36375203       0.69052684       0.51023891 </v>
    <v>       0.36543719       0.24139226       0.51003095 </v>
    <v>       0.36054567       0.95192771       0.51022820 </v>
    <v>       0.30111137       0.62998864       0.51015090 </v>
    <v>       0.29983472       0.07509330       0.51029674 </v>
    <v>       0.17069992       0.53337631       0.61749973 </v>
    <v>       0.26617315       0.20418864       0.61782817 </v>
    <v>       0.20797357       0.39592815       0.51015811 </v>
    <v>       0.04198089       0.62798819       0.51020634 </v>
    <v>       0.03880196       0.33454278       0.51021515 </v>
    <v>       0.17154442       0.53096299       0.40228819 </v>
    <v>       0.26640574       0.20451673       0.40260923 </v>
    <v>       0.70673877       0.49342024       0.56990612 </v>
    <v>       0.76982593       0.74040369       0.56976338 </v>
    <v>       0.70644272       0.49393803       0.45062449 </v>
    <v>       0.76954992       0.73995437       0.45048800 </v>
    <v>       0.49710071       0.22112435       0.56959131 </v>
    <v>       0.49614457       0.22163460       0.45026208 </v>
    <v>       0.45990869       0.80307790       0.56972545 </v>
    <v>       0.46045213       0.80282997       0.45042375 </v>
    <v>       0.25101663       0.53184397       0.56935373 </v>
    <v>       0.18748387       0.28473488       0.56990833 </v>
    <v>       0.25178022       0.52985553       0.45008253 </v>
    <v>       0.18752775       0.28484689       0.45060522 </v>
    <v>       0.76383450       0.49505189       0.56929935 </v>
    <v>       0.71108594       0.79748539       0.56917839 </v>
    <v>       0.79278745       0.71093960       0.51019506 </v>
    <v>       0.94321938       0.53067577       0.51032407 </v>
    <v>       0.90841603       0.60229376       0.51034252 </v>
    <v>       0.83821644       0.63693323       0.51032482 </v>
    <v>       0.80414435       0.60140957       0.51029332 </v>
    <v>       0.83681913       0.53169243       0.51027045 </v>
    <v>       0.90720479       0.49503646       0.51027681 </v>
    <v>       0.94591157       0.63616017       0.51030502 </v>
    <v>       0.94362003       0.42361484       0.51021656 </v>
    <v>       0.76356873       0.49550371       0.45112911 </v>
    <v>       0.79156011       0.50346363       0.51022758 </v>
    <v>       0.71083708       0.79705244       0.45101413 </v>
    <v>       0.49722726       0.52942002       0.51027598 </v>
    <v>       0.56883439       0.49263118       0.51031882 </v>
    <v>       0.60344154       0.52822778       0.51030632 </v>
    <v>       0.56794455       0.59780937       0.51018471 </v>
    <v>       0.49824165       0.63478674       0.51018102 </v>
    <v>       0.60270018       0.42127298       0.51028544 </v>
    <v>       0.49661111       0.42280060       0.51021198 </v>
    <v>       0.56803939       0.38780337       0.51023174 </v>
    <v>       0.49589386       0.97662133       0.51025332 </v>
    <v>       0.49485572       0.87150785       0.51017672 </v>
    <v>       0.56444101       0.83751812       0.51010423 </v>
    <v>       0.60138453       0.87030599       0.51016313 </v>
    <v>       0.56754423       0.94070815       0.51023709 </v>
    <v>       0.60242996       0.97725409       0.51024598 </v>
    <v>       0.49750682       0.08274234       0.51021510 </v>
    <v>       0.56885867       0.04537610       0.51023172 </v>
    <v>       0.67740032       0.49975189       0.51029022 </v>
    <v>       0.49597757       0.27960704       0.56905701 </v>
    <v>       0.49041268       0.19836213       0.50996371 </v>
    <v>       0.67488875       0.82511720       0.51011312 </v>
    <v>       0.49523378       0.28000842       0.45085487 </v>
    <v>       0.48783923       0.31570085       0.51001669 </v>
    <v>       0.46159774       0.60105507       0.51025442 </v>
    <v>       0.39018463       0.63609706       0.51023596 </v>
    <v>       0.46100096       0.49444801       0.51023441 </v>
    <v>       0.45987739       0.38914319       0.51009132 </v>
    <v>       0.39015034       0.42622667       0.50993394 </v>
    <v>       0.35469806       0.49580067       0.50997523 </v>
    <v>       0.38939610       0.53129573       0.51016995 </v>
    <v>       0.35552886       0.60263995       0.51018397 </v>
    <v>       0.45918940       0.94170426       0.51024129 </v>
    <v>       0.38783269       0.97907181       0.51025189 </v>
    <v>       0.46080435       0.04782649       0.51025205 </v>
    <v>       0.38915916       0.08373103       0.51026876 </v>
    <v>       0.35535859       0.15411957       0.51022823 </v>
    <v>       0.39228616       0.18692158       0.51010386 </v>
    <v>       0.46184960       0.15294118       0.51011315 </v>
    <v>       0.35426528       0.04719585       0.51027818 </v>
    <v>       0.46146180       0.74439666       0.56916563 </v>
    <v>       0.46633940       0.82603371       0.51011106 </v>
    <v>       0.46204392       0.74413176       0.45097526 </v>
    <v>       0.46995552       0.70824220       0.51010331 </v>
    <v>       0.19386156       0.53030660       0.56894683 </v>
    <v>       0.28068182       0.52457083       0.50975642 </v>
    <v>       0.24590297       0.22734117       0.56932497 </v>
    <v>       0.16457982       0.31410573       0.51027509 </v>
    <v>       0.01442269       0.49445772       0.51033106 </v>
    <v>       0.05046447       0.53006949       0.51032571 </v>
    <v>       0.12085493       0.49335727       0.51027710 </v>
    <v>       0.15351446       0.42362234       0.51024851 </v>
    <v>       0.11939879       0.38814916       0.51029466 </v>
    <v>       0.04920541       0.42284349       0.51030534 </v>
    <v>       0.01403599       0.60150099       0.51028147 </v>
    <v>       0.01172684       0.38896822       0.51024580 </v>
    <v>       0.19442949       0.52876840       0.45078412 </v>
    <v>       0.16619959       0.52147762       0.51004491 </v>
    <v>       0.24599588       0.22750173       0.45114404 </v>
    <v>       0.28190732       0.19941622       0.51023932 </v>
   </varray>
  </structure>
  <varray name="forces" >
   <v>      -0.00164195      -0.00017938       0.00134997 </v>
   <v>      -0.00264062       0.00094511      -0.00037402 </v>
   <v>      -0.00112035      -0.00279395      -0.00073533 </v>
   <v>      -0.00185494      -0.00293732       0.00080607 </v>
   <v>      -0.00154112       0.00271804       0.00096033 </v>
   <v>      -0.00223374       0.00021820       0.00143273 </v>
   <v>      -0.00058645       0.00138166      -0.00005999 </v>
   <v>      -0.00095599       0.00223131       0.00174407 </v>
   <v>       0.00198549      -0.00085794       0.00011114 </v>
   <v>      -0.00161255      -0.00036799       0.00004953 </v>
   <v>      -0.00060976       0.00104038      -0.00027208 </v>
   <v>       0.00103963      -0.00143638       0.00143677 </v>
   <v>       0.00232814       0.00031701      -0.00254475 </v>
   <v>       0.00452728      -0.00032544      -0.00262292 </v>
   <v>      -0.00035660       0.00174286       0.00177060 </v>
   <v>       0.00074476      -0.00044766       0.00040366 </v>
   <v>      -0.00379099      -0.00045114       0.00058471 </v>
   <v>      -0.00046021       0.00096364      -0.00169621 </v>
   <v>      -0.00226535       0.00037174      -0.00106374 </v>
   <v>      -0.00035667       0.00008417      -0.00118112 </v>
   <v>       0.00437984      -0.00121752       0.00075534 </v>
   <v>      -0.00105815      -0.00184741       0.00043666 </v>
   <v>      -0.00059300      -0.00204645       0.00002597 </v>
   <v>       0.00279978       0.00796484      -0.00219750 </v>
   <v>       0.00324215       0.00025940       0.00158825 </v>
   <v>       0.00169450      -0.00291613       0.00085106 </v>
   <v>       0.00085098       0.00006819       0.00123021 </v>
   <v>       0.00108475       0.00115612      -0.00034270 </v>
   <v>      -0.00111706      -0.00665816       0.00069715 </v>
   <v>      -0.00144375      -0.00023828       0.00024459 </v>
   <v>      -0.00189937       0.00092008       0.00705124 </v>
   <v>      -0.00088276       0.00037512      -0.00199132 </v>
   <v>      -0.00275763       0.00102504      -0.00100306 </v>
   <v>       0.00073732      -0.00466137       0.00081516 </v>
   <v>       0.00257749      -0.00290204      -0.00196488 </v>
   <v>      -0.00233782      -0.00315950      -0.00439894 </v>
   <v>       0.00503850       0.00609361      -0.00247211 </v>
   <v>       0.00235930       0.00081402       0.00254120 </v>
   <v>       0.00779262       0.00298818      -0.00171940 </v>
   <v>      -0.00223821       0.00081144       0.00074339 </v>
   <v>       0.00981526       0.00203795       0.00404573 </v>
   <v>      -0.00003710      -0.00383748      -0.00156194 </v>
   <v>       0.00526937       0.00239256       0.00255880 </v>
   <v>       0.00007552       0.00227286      -0.00265999 </v>
   <v>      -0.00039605       0.00309222      -0.00415603 </v>
   <v>       0.00126203       0.00062644       0.00141522 </v>
   <v>       0.00442728       0.00052480      -0.00010106 </v>
   <v>      -0.00127819      -0.00482963      -0.00117254 </v>
   <v>      -0.00054350       0.00094602      -0.00097604 </v>
   <v>      -0.00469885      -0.00406285       0.00177086 </v>
   <v>       0.00237141      -0.00092798       0.00023118 </v>
   <v>       0.00237715      -0.00101547       0.00077396 </v>
   <v>      -0.00538803       0.00247701       0.00031245 </v>
   <v>       0.00440324       0.00042033      -0.00000555 </v>
   <v>       0.00127780      -0.00200774      -0.00060461 </v>
   <v>      -0.00481495       0.00430803      -0.00235564 </v>
   <v>       0.00209772      -0.00114638       0.00191256 </v>
   <v>      -0.00382837      -0.00331204      -0.00018104 </v>
   <v>      -0.00156073       0.00423590       0.00220891 </v>
   <v>      -0.00132819       0.00358366      -0.00049218 </v>
   <v>       0.00184654       0.00469510       0.00188982 </v>
   <v>       0.00066659       0.00244287       0.00067101 </v>
   <v>       0.00207058       0.00286406       0.00010087 </v>
   <v>      -0.00715900      -0.00070789       0.00051042 </v>
   <v>      -0.00014322      -0.00222830      -0.00005674 </v>
   <v>       0.00416926       0.00044359      -0.00082031 </v>
   <v>       0.00435171      -0.00019962      -0.00011180 </v>
   <v>       0.00530405      -0.00317836      -0.00120568 </v>
   <v>       0.00216844       0.00196291      -0.00006313 </v>
   <v>       0.00009347      -0.00459049       0.00016510 </v>
   <v>       0.00146638      -0.00392619       0.00054863 </v>
   <v>       0.00253895       0.00277574      -0.00004975 </v>
   <v>       0.00266035      -0.00065302       0.00476765 </v>
   <v>       0.00035063       0.00591926      -0.00031365 </v>
   <v>       0.00407690       0.00611508       0.00455899 </v>
   <v>       0.00347343      -0.00167853       0.00198517 </v>
   <v>      -0.00255817       0.00622329      -0.00035123 </v>
   <v>      -0.00071468       0.00209296       0.00031100 </v>
   <v>      -0.00486295      -0.00212811      -0.00089793 </v>
   <v>       0.00372079       0.00210038      -0.00042184 </v>
   <v>       0.00064814       0.00135646       0.00130819 </v>
   <v>      -0.00152729      -0.00501949       0.00034754 </v>
   <v>      -0.00017749      -0.00297871      -0.00323651 </v>
   <v>       0.00041581      -0.00440738      -0.00155912 </v>
   <v>       0.00144376       0.00589298      -0.00104717 </v>
   <v>      -0.00248583       0.00121313       0.00039187 </v>
   <v>      -0.00131164       0.00247281       0.00071704 </v>
   <v>       0.00126836      -0.00105891       0.00015900 </v>
   <v>       0.00212539      -0.00058465       0.00077586 </v>
   <v>       0.00126617      -0.00478256      -0.00048997 </v>
   <v>      -0.00215076       0.00264939      -0.00150347 </v>
   <v>      -0.00646597       0.00006362       0.00131116 </v>
   <v>      -0.00150245      -0.00088969      -0.00141692 </v>
   <v>       0.00065688       0.00138161       0.00101730 </v>
   <v>      -0.00139307      -0.00215116       0.00086516 </v>
   <v>      -0.00570729      -0.00125502      -0.00311359 </v>
   <v>      -0.00178390      -0.00419082      -0.00180664 </v>
   <v>      -0.00190294       0.00034936      -0.00202345 </v>
   <v>      -0.00815020      -0.00017467       0.00110483 </v>
   <v>      -0.01106817      -0.00144758      -0.00071731 </v>
   <v>       0.00292038      -0.00239719       0.00163695 </v>
   <v>       0.00292939      -0.00206792      -0.00103302 </v>
   <v>       0.00055504      -0.00293251      -0.00037215 </v>
   <v>      -0.00642803       0.00002278       0.00049271 </v>
   <v>       0.00228523       0.00191913       0.00278803 </v>
   <v>       0.00084922       0.00030820      -0.00109059 </v>
   <v>       0.00252838       0.00476107       0.00124821 </v>
   <v>      -0.00380804      -0.00087259       0.00088092 </v>
   <v>      -0.00033815      -0.00058830      -0.00012832 </v>
   <v>       0.00020742      -0.00390515       0.00017426 </v>
   <v>      -0.00897291      -0.00454055      -0.00538103 </v>
   <v>       0.00232681       0.00445088      -0.00115224 </v>
   <v>       0.00311895      -0.00106825      -0.00043402 </v>
   <v>      -0.00022163      -0.00269735      -0.00188289 </v>
  </varray>
  <varray name="stress" >
   <v>       0.00323716      -0.00217759      -0.00095065 </v>
   <v>      -0.00217759      -0.00594824       0.00019479 </v>
   <v>      -0.00095066       0.00019480      -0.19231005 </v>
  </varray>
  <energy>
   <i name="e_fr_energy">   -856.77004999 </i>
   <i name="e_wo_entrp">   -856.77004999 </i>
   <i name="e_0_energy">     -0.00000000 </i>
  </energy>
  <time name="totalsc"> 3248.96 3284.05</time>
  <eigenvalues>
   <array>
    <dimension dim="1">band</dimension>
    <dimension dim="2">kpoint</dimension>
    <dimension dim="3">spin</dimension>
    <field>eigene</field>
    <field>occ</field>
    <set>
     <set comment="spin 1">
      <set comment="kpoint 1">
       <r>  -24.4253    1.0000 </r>
       <r>  -24.4236    1.0000 </r>
       <r>  -24.4168    1.0000 </r>
       <r>  -24.4152    1.0000 </r>
       <r>  -24.4151    1.0000 </r>
       <r>  -24.4144    1.0000 </r>
       <r>  -22.0747    1.0000 </r>
       <r>  -22.0728    1.0000 </r>
       <r>  -22.0108    1.0000 </r>
       <r>  -21.7945    1.0000 </r>
       <r>  -21.7944    1.0000 </r>
       <r>  -21.7936    1.0000 </r>
       <r>  -21.7934    1.0000 </r>
       <r>  -21.7929    1.0000 </r>
       <r>  -21.7911    1.0000 </r>
       <r>  -21.3668    1.0000 </r>
       <r>  -21.3647    1.0000 </r>
       <r>  -21.1385    1.0000 </r>
       <r>  -20.6497    1.0000 </r>
       <r>  -20.4624    1.0000 </r>
       <r>  -20.4611    1.0000 </r>
       <r>  -20.4232    1.0000 </r>
       <r>  -20.4213    1.0000 </r>
       <r>  -20.3422    1.0000 </r>
       <r>  -19.8089    1.0000 </r>
       <r>  -19.7274    1.0000 </r>
       <r>  -19.4575    1.0000 </r>
       <r>  -19.4571    1.0000 </r>
       <r>  -19.4093    1.0000 </r>
       <r>  -19.4085    1.0000 </r>
       <r>  -18.5697    1.0000 </r>
       <r>  -18.5693    1.0000 </r>
       <r>  -18.2653    1.0000 </r>
       <r>  -18.1586    1.0000 </r>
       <r>  -18.1318    1.0000 </r>
       <r>  -18.1309    1.0000 </r>
       <r>  -18.1044    1.0000 </r>
       <r>  -18.0492    1.0000 </r>
       <r>  -18.0485    1.0000 </r>
       <r>  -17.5304    1.0000 </r>
       <r>  -17.5293    1.0000 </r>
       <r>  -16.8796    1.0000 </r>
       <r>  -16.4967    1.0000 </r>
       <r>  -16.4954    1.0000 </r>
       <r>  -16.1807    1.0000 </r>
       <r>  -15.9530    1.0000 </r>
       <r>  -15.9525    1.0000 </r>
       <r>  -15.9510    1.0000 </r>
       <r>  -15.9505    1.0000 </r>
       <r>  -15.9440    1.0000 </r>
       <r>  -15.9436    1.0000 </r>
       <r>  -15.8881    1.0000 </r>
       <r>  -15.7599    1.0000 </r>
       <r>  -15.7591    1.0000 </r>
       <r>  -15.3910    1.0000 </r>
       <r>  -15.3871    1.0000 </r>
       <r>  -15.3861    1.0000 </r>
       <r>  -15.2304    1.0000 </r>
       <r>  -14.9777    1.0000 </r>
       <r>  -14.9769    1.0000 </r>
       <r>  -14.6920    1.0000 </r>
       <r>  -14.6622    1.0000 </r>
       <r>  -14.5416    1.0000 </r>
       <r>  -14.5413    1.0000 </r>
       <r>  -14.2687    1.0000 </r>
       <r>  -14.2683    1.0000 </r>
       <r>  -13.2734    1.0000 </r>
       <r>  -13.2069    1.0000 </r>
       <r>  -13.2064    1.0000 </r>
       <r>  -13.0996    1.0000 </r>
       <r>  -12.9765    1.0000 </r>
       <r>  -12.9761    1.0000 </r>
       <r>  -12.6715    1.0000 </r>
       <r>  -12.6696    1.0000 </r>
       <r>  -12.6261    1.0000 </r>
       <r>  -12.5523    1.0000 </r>
       <r>  -12.5469    1.0000 </r>
       <r>  -12.5118    1.0000 </r>
       <r>  -12.5111    1.0000 </r>
       <r>  -12.5101    1.0000 </r>
       <r>  -12.5096    1.0000 </r>
       <r>  -12.5022    1.0000 </r>
       <r>  -12.5016    1.0000 </r>
       <r>  -12.4070    1.0000 </r>
       <r>  -12.4019    1.0000 </r>
       <r>  -12.2042    1.0000 </r>
       <r>  -12.2041    1.0000 </r>
       <r>  -12.0483    1.0000 </r>
       <r>  -11.9312    1.0000 </r>
       <r>  -11.9306    1.0000 </r>
       <r>  -11.3189    1.0000 </r>
       <r>  -11.3176    1.0000 </r>
       <r>  -11.2644    1.0000 </r>
       <r>  -11.2631    1.0000 </r>
       <r>  -10.9265    1.0000 </r>
       <r>  -10.9258    1.0000 </r>
       <r>  -10.8696    1.0000 </r>
       <r>  -10.8071    1.0000 </r>
       <r>  -10.7595    1.0000 </r>
       <r>  -10.4960    1.0000 </r>
       <r>  -10.4953    1.0000 </r>
       <r>  -10.4726    1.0000 </r>
       <r>  -10.4549    1.0000 </r>
       <r>  -10.3281    1.0000 </r>
       <r>  -10.3266    1.0000 </r>
       <r>  -10.3146    1.0000 </r>
       <r>  -10.0302    1.0000 </r>
       <r>  -10.0295    1.0000 </r>
       <r>  -10.0206    1.0000 </r>
       <r>  -10.0197    1.0000 </r>
       <r>   -9.8841    1.0000 </r>
       <r>   -9.7935    1.0000 </r>
       <r>   -9.7924    1.0000 </r>
       <r>   -9.7884    1.0000 </r>
       <r>   -9.7454    1.0000 </r>
       <r>   -9.7436    1.0000 </r>
       <r>   -9.7421    1.0000 </r>
       <r>   -9.7338    1.0000 </r>
       <r>   -9.6451    1.0000 </r>
       <r>   -9.6438    1.0000 </r>
       <r>   -9.6394    1.0000 </r>
       <r>   -9.6261    1.0000 </r>
       <r>   -9.6249    1.0000 </r>
       <r>   -9.4778    1.0000 </r>
       <r>   -9.4769    1.0000 </r>
       <r>   -9.4192    1.0000 </r>
       <r>   -9.2449    1.0000 </r>
       <r>   -9.2418    1.0000 </r>
       <r>   -9.1978    1.0000 </r>
       <r>   -9.1972    1.0000 </r>
       <r>   -9.1715    1.0000 </r>
       <r>   -9.1706    1.0000 </r>
       <r>   -8.8944    1.0000 </r>
       <r>   -8.8747    1.0000 </r>
       <r>   -8.8736    1.0000 </r>
       <r>   -8.6798    1.0000 </r>
       <r>   -8.6783    1.0000 </r>
       <r>   -8.6755    1.0000 </r>
       <r>   -8.6672    1.0000 </r>
       <r>   -8.6664    1.0000 </r>
       <r>   -8.6526    1.0000 </r>
       <r>   -8.2225    1.0000 </r>
       <r>   -8.2114    1.0000 </r>
       <r>   -8.2104    1.0000 </r>
       <r>   -7.9034    1.0000 </r>
       <r>   -7.8746    1.0000 </r>
       <r>   -7.8746    1.0000 </r>
       <r>   -7.7147    1.0000 </r>
       <r>   -7.6442    1.0000 </r>
       <r>   -7.6437    1.0000 </r>
       <r>   -7.6159    1.0000 </r>
       <r>   -7.6149    1.0000 </r>
       <r>   -7.5912    1.0000 </r>
       <r>   -7.5874    1.0000 </r>
       <r>   -7.5862    1.0000 </r>
       <r>   -7.5144    1.0000 </r>
       <r>   -7.1525    1.0000 </r>
       <r>   -7.1523    1.0000 </r>
       <r>   -7.0505    1.0000 </r>
       <r>   -6.9619    1.0000 </r>
       <r>   -6.8608    1.0000 </r>
       <r>   -6.8575    1.0000 </r>
       <r>   -6.8393    1.0000 </r>
       <r>   -6.7546    1.0000 </r>
       <r>   -6.7512    1.0000 </r>
       <r>   -6.6648    1.0000 </r>
       <r>   -6.6579    1.0000 </r>
       <r>   -6.6571    1.0000 </r>
       <r>   -6.4145    1.0000 </r>
       <r>   -6.4118    1.0000 </r>
       <r>   -6.3367    1.0000 </r>
       <r>   -6.3206    1.0000 </r>
       <r>   -6.3188    1.0000 </r>
       <r>   -6.2406    1.0000 </r>
       <r>   -6.1120    1.0000 </r>
       <r>   -6.1094    1.0000 </r>
       <r>   -6.1086    1.0000 </r>
       <r>   -5.7481    1.0000 </r>
       <r>   -5.7480    1.0000 </r>
       <r>   -5.7393    1.0000 </r>
       <r>   -5.4839    1.0000 </r>
       <r>   -5.4830    1.0000 </r>
       <r>   -5.3744    1.0000 </r>
       <r>   -5.3742    1.0000 </r>
       <r>   -5.3654    1.0000 </r>
       <r>   -5.3365    1.0000 </r>
       <r>   -4.8356    1.0000 </r>
       <r>   -4.6571    1.0000 </r>
       <r>   -4.6562    1.0000 </r>
       <r>   -2.6043    0.0000 </r>
       <r>   -2.3186    0.0000 </r>
       <r>   -2.3175    0.0000 </r>
       <r>   -1.8789    0.0000 </r>
       <r>   -1.8103    0.0000 </r>
       <r>   -1.8098    0.0000 </r>
       <r>   -1.8050    0.0000 </r>
       <r>   -1.7987    0.0000 </r>
       <r>   -1.7976    0.0000 </r>
       <r>   -1.7952    0.0000 </r>
       <r>   -1.5725    0.0000 </r>
       <r>   -1.5663    0.0000 </r>
       <r>   -1.5648    0.0000 </r>
       <r>   -1.5180    0.0000 </r>
       <r>   -1.5163    0.0000 </r>
       <r>   -1.4135    0.0000 </r>
       <r>   -1.3667    0.0000 </r>
       <r>   -1.3656    0.0000 </r>
       <r>   -1.0197    0.0000 </r>
       <r>   -1.0193    0.0000 </r>
       <r>   -1.0090    0.0000 </r>
       <r>   -0.4570    0.0000 </r>
       <r>   -0.4124    0.0000 </r>
       <r>   -0.4115    0.0000 </r>
       <r>   -0.1356    0.0000 </r>
       <r>    0.0668    0.0000 </r>
       <r>    0.1808    0.0000 </r>
       <r>    0.2252    0.0000 </r>
       <r>    0.2256    0.0000 </r>
       <r>    0.2650    0.0000 </r>
       <r>    0.2652    0.0000 </r>
       <r>    0.2998    0.0000 </r>
       <r>    0.3004    0.0000 </r>
       <r>    0.3253    0.0000 </r>
       <r>    0.4855    0.0000 </r>
       <r>    0.4988    0.0000 </r>
       <r>    0.6546    0.0000 </r>
       <r>    0.7490    0.0000 </r>
       <r>    0.7496    0.0000 </r>
       <r>    0.8224    0.0000 </r>
       <r>    0.8228    0.0000 </r>
       <r>    0.8706    0.0000 </r>
       <r>    0.9185    0.0000 </r>
       <r>    0.9318    0.0000 </r>
       <r>    0.9333    0.0000 </r>
       <r>    0.9496    0.0000 </r>
       <r>    0.9748    0.0000 </r>
       <r>    0.9753    0.0000 </r>
       <r>    1.1067    0.0000 </r>
       <r>    1.1503    0.0000 </r>
       <r>    1.1510    0.0000 </r>
       <r>    1.1635    0.0000 </r>
       <r>    1.2482    0.0000 </r>
       <r>    1.2692    0.0000 </r>
       <r>    1.2700    0.0000 </r>
       <r>    1.3354    0.0000 </r>
       <r>    1.3391    0.0000 </r>
       <r>    1.4304    0.0000 </r>
       <r>    1.4326    0.0000 </r>
       <r>    1.4451    0.0000 </r>
       <r>    1.4506    0.0000 </r>
       <r>    1.4717    0.0000 </r>
       <r>    1.4720    0.0000 </r>
       <r>    1.5109    0.0000 </r>
       <r>    1.5203    0.0000 </r>
       <r>    1.5230    0.0000 </r>
       <r>    1.5843    0.0000 </r>
      </set>
      <set comment="kpoint 2">
       <r>  -24.4253    1.0000 </r>
       <r>  -24.4236    1.0000 </r>
       <r>  -24.4168    1.0000 </r>
       <r>  -24.4152    1.0000 </r>
       <r>  -24.4151    1.0000 </r>
       <r>  -24.4144    1.0000 </r>
       <r>  -22.0746    1.0000 </r>
       <r>  -22.0728    1.0000 </r>
       <r>  -22.0110    1.0000 </r>
       <r>  -21.7945    1.0000 </r>
       <r>  -21.7944    1.0000 </r>
       <r>  -21.7936    1.0000 </r>
       <r>  -21.7934    1.0000 </r>
       <r>  -21.7929    1.0000 </r>
       <r>  -21.7911    1.0000 </r>
       <r>  -21.3665    1.0000 </r>
       <r>  -21.3646    1.0000 </r>
       <r>  -21.1389    1.0000 </r>
       <r>  -20.6496    1.0000 </r>
       <r>  -20.4644    1.0000 </r>
       <r>  -20.4623    1.0000 </r>
       <r>  -20.4215    1.0000 </r>
       <r>  -20.4201    1.0000 </r>
       <r>  -20.3410    1.0000 </r>
       <r>  -19.8100    1.0000 </r>
       <r>  -19.7286    1.0000 </r>
       <r>  -19.4613    1.0000 </r>
       <r>  -19.4605    1.0000 </r>
       <r>  -19.4045    1.0000 </r>
       <r>  -19.4037    1.0000 </r>
       <r>  -18.5705    1.0000 </r>
       <r>  -18.5695    1.0000 </r>
       <r>  -18.2657    1.0000 </r>
       <r>  -18.1712    1.0000 </r>
       <r>  -18.1326    1.0000 </r>
       <r>  -18.1203    1.0000 </r>
       <r>  -18.1061    1.0000 </r>
       <r>  -18.0468    1.0000 </r>
       <r>  -18.0453    1.0000 </r>
       <r>  -17.5304    1.0000 </r>
       <r>  -17.5292    1.0000 </r>
       <r>  -16.8821    1.0000 </r>
       <r>  -16.4958    1.0000 </r>
       <r>  -16.4943    1.0000 </r>
       <r>  -16.1803    1.0000 </r>
       <r>  -15.9530    1.0000 </r>
       <r>  -15.9525    1.0000 </r>
       <r>  -15.9510    1.0000 </r>
       <r>  -15.9505    1.0000 </r>
       <r>  -15.9440    1.0000 </r>
       <r>  -15.9436    1.0000 </r>
       <r>  -15.8890    1.0000 </r>
       <r>  -15.7609    1.0000 </r>
       <r>  -15.7586    1.0000 </r>
       <r>  -15.3910    1.0000 </r>
       <r>  -15.3871    1.0000 </r>
       <r>  -15.3861    1.0000 </r>
       <r>  -15.2296    1.0000 </r>
       <r>  -14.9775    1.0000 </r>
       <r>  -14.9769    1.0000 </r>
       <r>  -14.6934    1.0000 </r>
       <r>  -14.6631    1.0000 </r>
       <r>  -14.5409    1.0000 </r>
       <r>  -14.5399    1.0000 </r>
       <r>  -14.2690    1.0000 </r>
       <r>  -14.2684    1.0000 </r>
       <r>  -13.2733    1.0000 </r>
       <r>  -13.2071    1.0000 </r>
       <r>  -13.2064    1.0000 </r>
       <r>  -13.0993    1.0000 </r>
       <r>  -12.9767    1.0000 </r>
       <r>  -12.9761    1.0000 </r>
       <r>  -12.6714    1.0000 </r>
       <r>  -12.6697    1.0000 </r>
       <r>  -12.6263    1.0000 </r>
       <r>  -12.5523    1.0000 </r>
       <r>  -12.5469    1.0000 </r>
       <r>  -12.5118    1.0000 </r>
       <r>  -12.5111    1.0000 </r>
       <r>  -12.5101    1.0000 </r>
       <r>  -12.5096    1.0000 </r>
       <r>  -12.5025    1.0000 </r>
       <r>  -12.5021    1.0000 </r>
       <r>  -12.4075    1.0000 </r>
       <r>  -12.4010    1.0000 </r>
       <r>  -12.2041    1.0000 </r>
       <r>  -12.2033    1.0000 </r>
       <r>  -12.0482    1.0000 </r>
       <r>  -11.9313    1.0000 </r>
       <r>  -11.9306    1.0000 </r>
       <r>  -11.3192    1.0000 </r>
       <r>  -11.3181    1.0000 </r>
       <r>  -11.2647    1.0000 </r>
       <r>  -11.2629    1.0000 </r>
       <r>  -10.9264    1.0000 </r>
       <r>  -10.9255    1.0000 </r>
       <r>  -10.8692    1.0000 </r>
       <r>  -10.8075    1.0000 </r>
       <r>  -10.7593    1.0000 </r>
       <r>  -10.4961    1.0000 </r>
       <r>  -10.4956    1.0000 </r>
       <r>  -10.4719    1.0000 </r>
       <r>  -10.4550    1.0000 </r>
       <r>  -10.3285    1.0000 </r>
       <r>  -10.3270    1.0000 </r>
       <r>  -10.3134    1.0000 </r>
       <r>  -10.0309    1.0000 </r>
       <r>  -10.0297    1.0000 </r>
       <r>  -10.0205    1.0000 </r>
       <r>  -10.0197    1.0000 </r>
       <r>   -9.8846    1.0000 </r>
       <r>   -9.7931    1.0000 </r>
       <r>   -9.7923    1.0000 </r>
       <r>   -9.7880    1.0000 </r>
       <r>   -9.7454    1.0000 </r>
       <r>   -9.7437    1.0000 </r>
       <r>   -9.7420    1.0000 </r>
       <r>   -9.7338    1.0000 </r>
       <r>   -9.6452    1.0000 </r>
       <r>   -9.6438    1.0000 </r>
       <r>   -9.6391    1.0000 </r>
       <r>   -9.6262    1.0000 </r>
       <r>   -9.6251    1.0000 </r>
       <r>   -9.4777    1.0000 </r>
       <r>   -9.4769    1.0000 </r>
       <r>   -9.4193    1.0000 </r>
       <r>   -9.2448    1.0000 </r>
       <r>   -9.2418    1.0000 </r>
       <r>   -9.1978    1.0000 </r>
       <r>   -9.1972    1.0000 </r>
       <r>   -9.1716    1.0000 </r>
       <r>   -9.1707    1.0000 </r>
       <r>   -8.8943    1.0000 </r>
       <r>   -8.8747    1.0000 </r>
       <r>   -8.8735    1.0000 </r>
       <r>   -8.6798    1.0000 </r>
       <r>   -8.6783    1.0000 </r>
       <r>   -8.6756    1.0000 </r>
       <r>   -8.6672    1.0000 </r>
       <r>   -8.6664    1.0000 </r>
       <r>   -8.6527    1.0000 </r>
       <r>   -8.2225    1.0000 </r>
       <r>   -8.2114    1.0000 </r>
       <r>   -8.2104    1.0000 </r>
       <r>   -7.9033    1.0000 </r>
       <r>   -7.8746    1.0000 </r>
       <r>   -7.8744    1.0000 </r>
       <r>   -7.7146    1.0000 </r>
       <r>   -7.6442    1.0000 </r>
       <r>   -7.6438    1.0000 </r>
       <r>   -7.6159    1.0000 </r>
       <r>   -7.6151    1.0000 </r>
       <r>   -7.5912    1.0000 </r>
       <r>   -7.5874    1.0000 </r>
       <r>   -7.5862    1.0000 </r>
       <r>   -7.5147    1.0000 </r>
       <r>   -7.1525    1.0000 </r>
       <r>   -7.1522    1.0000 </r>
       <r>   -7.0506    1.0000 </r>
       <r>   -6.9618    1.0000 </r>
       <r>   -6.8608    1.0000 </r>
       <r>   -6.8574    1.0000 </r>
       <r>   -6.8394    1.0000 </r>
       <r>   -6.7545    1.0000 </r>
       <r>   -6.7513    1.0000 </r>
       <r>   -6.6648    1.0000 </r>
       <r>   -6.6579    1.0000 </r>
       <r>   -6.6571    1.0000 </r>
       <r>   -6.4143    1.0000 </r>
       <r>   -6.4117    1.0000 </r>
       <r>   -6.3367    1.0000 </r>
       <r>   -6.3206    1.0000 </r>
       <r>   -6.3187    1.0000 </r>
       <r>   -6.2408    1.0000 </r>
       <r>   -6.1120    1.0000 </r>
       <r>   -6.1094    1.0000 </r>
[...]
       <r>   -20.5704    31.9103    39.0515 </r>
       <r>   -20.4749    24.0131    41.4939 </r>
       <r>   -20.3794    16.5459    43.5802 </r>
       <r>   -20.2839    17.0547    45.4955 </r>
       <r>   -20.1884    24.0629    47.9983 </r>
       <r>   -20.0929     0.0000    48.0000 </r>
       <r>   -19.9974     0.0000    48.0000 </r>
       <r>   -19.9019    23.9468    50.2870 </r>
       <r>   -19.8064     9.5982    51.3505 </r>
       <r>   -19.7109     5.8261    52.0236 </r>
       <r>   -19.6154     5.2823    52.7382 </r>
       <r>   -19.5199     9.8881    53.7448 </r>
       <r>   -19.4244    12.2299    55.3018 </r>
       <r>   -19.3289    11.9740    56.5781 </r>
       <r>   -19.2334    13.0612    57.9818 </r>
       <r>   -19.1379    10.1259    59.1006 </r>
       <r>   -19.0424     7.3288    60.0000 </r>
       <r>   -18.9468     0.0000    60.0000 </r>
       <r>   -18.8513     0.0000    60.0000 </r>
       <r>   -18.7558     0.5454    60.0521 </r>
       <r>   -18.6603     8.9376    61.2538 </r>
       <r>   -18.5648    22.2104    63.6883 </r>
       <r>   -18.4693     6.4038    64.5121 </r>
       <r>   -18.3738     7.3855    65.3389 </r>
       <r>   -18.2783     3.2524    65.7108 </r>
       <r>   -18.1828    41.7858    69.9908 </r>
       <r>   -18.0873    19.7410    72.2522 </r>
       <r>   -17.9918    12.6607    74.0427 </r>
       <r>   -17.8963    12.9753    75.5061 </r>
       <r>   -17.8008    16.0654    77.4346 </r>
       <r>   -17.7053     0.0000    78.0000 </r>
       <r>   -17.6098     4.1317    78.3946 </r>
       <r>   -17.5143    18.5400    80.4384 </r>
       <r>   -17.4188     5.8187    81.1561 </r>
       <r>   -17.3233     5.0532    81.8827 </r>
       <r>   -17.2278     5.5719    82.4667 </r>
       <r>   -17.1323     5.3894    83.1149 </r>
       <r>   -17.0368     2.4098    83.3637 </r>
       <r>   -16.9413     2.4092    83.6304 </r>
       <r>   -16.8458     3.1412    84.0000 </r>
       <r>   -16.7503     0.0000    84.0000 </r>
       <r>   -16.6547     0.0000    84.0000 </r>
       <r>   -16.5592     0.0001    84.0000 </r>
       <r>   -16.4637    23.8630    86.2790 </r>
       <r>   -16.3682     2.6423    86.5860 </r>
       <r>   -16.2727     2.4839    86.8706 </r>
       <r>   -16.1772     8.7697    87.7709 </r>
       <r>   -16.0817    18.8093    89.9965 </r>
       <r>   -15.9862    14.1287    91.3494 </r>
       <r>   -15.8907   140.3044   105.0333 </r>
       <r>   -15.7952     3.7487   105.5914 </r>
       <r>   -15.6997    20.1263   107.6223 </r>
       <r>   -15.6042     0.0000   108.0000 </r>
       <r>   -15.5087     0.0000   108.0000 </r>
       <r>   -15.4132     0.0238   108.0023 </r>
       <r>   -15.3177    62.8006   114.0000 </r>
       <r>   -15.2222     2.2102   114.2111 </r>
       <r>   -15.1267     4.9146   114.8364 </r>
       <r>   -15.0312    13.3641   116.2097 </r>
       <r>   -14.9357    30.7489   119.4703 </r>
       <r>   -14.8402     2.0213   120.0277 </r>
       <r>   -14.7447    23.6822   122.6298 </r>
       <r>   -14.6492    11.4707   123.9956 </r>
       <r>   -14.5537     0.1185   124.0113 </r>
       <r>   -14.4582    23.2147   126.5511 </r>
       <r>   -14.3626    10.0558   127.6939 </r>
       <r>   -14.2671    30.4007   131.7036 </r>
       <r>   -14.1716     0.0000   132.0000 </r>
       <r>   -14.0761     0.0000   132.0000 </r>
       <r>   -13.9806     0.0000   132.0000 </r>
       <r>   -13.8851     0.0000   132.0000 </r>
       <r>   -13.7896     0.0000   132.0000 </r>
       <r>   -13.6941     0.0000   132.0000 </r>
       <r>   -13.5986     0.0000   132.0000 </r>
       <r>   -13.5031     0.0000   132.0000 </r>
       <r>   -13.4076     0.0000   132.0000 </r>
       <r>   -13.3121     0.0000   132.0000 </r>
       <r>   -13.2166    38.2888   135.6567 </r>
       <r>   -13.1211     0.0024   138.0002 </r>
       <r>   -13.0256    24.1899   140.3105 </r>
       <r>   -12.9301    31.7528   144.0000 </r>
       <r>   -12.8346     0.0000   144.0000 </r>
       <r>   -12.7391     0.0000   144.0000 </r>
       <r>   -12.6436    53.0227   149.0639 </r>
       <r>   -12.5481    37.9452   153.3926 </r>
       <r>   -12.4526   120.9581   166.9536 </r>
       <r>   -12.3571    12.0381   168.5501 </r>
       <r>   -12.2616    10.2518   169.6792 </r>
       <r>   -12.1661    27.7574   172.4844 </r>
       <r>   -12.0705    14.3082   174.0002 </r>
       <r>   -11.9750    26.9323   176.5724 </r>
       <r>   -11.8795    30.7099   180.0000 </r>
       <r>   -11.7840     0.0000   180.0000 </r>
       <r>   -11.6885     0.0000   180.0000 </r>
       <r>   -11.5930     0.0000   180.0000 </r>
       <r>   -11.4975     0.0000   180.0000 </r>
       <r>   -11.4020     6.4696   180.6179 </r>
       <r>   -11.3065    35.1302   184.3563 </r>
       <r>   -11.2110    34.1755   188.0000 </r>
       <r>   -11.1155     0.0000   188.0000 </r>
       <r>   -11.0200     0.0000   188.0000 </r>
       <r>   -10.9245     7.5829   188.7242 </r>
       <r>   -10.8290    36.6189   194.0666 </r>
       <r>   -10.7335    36.9250   197.9943 </r>
       <r>   -10.6380     0.0000   198.0000 </r>
       <r>   -10.5425     0.0008   198.0001 </r>
       <r>   -10.4470    67.5391   204.4503 </r>
       <r>   -10.3515    21.7773   206.7470 </r>
       <r>   -10.2560    31.9747   210.7217 </r>
       <r>   -10.1605    16.1266   212.4070 </r>
       <r>   -10.0650    11.0484   213.9554 </r>
       <r>    -9.9695    53.5487   220.0482 </r>
       <r>    -9.8739    15.5427   221.9867 </r>
       <r>    -9.7784    29.2343   224.7920 </r>
       <r>    -9.6829   108.8522   236.5682 </r>
       <r>    -9.5874    86.8900   246.0000 </r>
       <r>    -9.4919     3.0448   246.2908 </r>
       <r>    -9.3964    39.0543   251.9998 </r>
       <r>    -9.3009     0.0000   252.0000 </r>
       <r>    -9.2054    44.2573   256.2268 </r>
       <r>    -9.1099    51.9262   264.0000 </r>
       <r>    -9.0144     0.0000   264.0000 </r>
       <r>    -8.9189     0.0009   264.0001 </r>
       <r>    -8.8234    62.8236   270.0000 </r>
       <r>    -8.7279     0.0000   270.0000 </r>
       <r>    -8.6324   125.6341   281.9986 </r>
       <r>    -8.5369     0.0000   282.0000 </r>
       <r>    -8.4414     0.0000   282.0000 </r>
       <r>    -8.3459     0.0000   282.0000 </r>
       <r>    -8.2504     0.0003   282.0000 </r>
       <r>    -8.1549    62.8242   288.0000 </r>
       <r>    -8.0594     0.0000   288.0000 </r>
       <r>    -7.9639     0.0000   288.0000 </r>
       <r>    -7.8684    36.1693   291.4543 </r>
       <r>    -7.7729    12.1968   294.0000 </r>
       <r>    -7.6774    24.5945   296.3489 </r>
       <r>    -7.5818   122.0990   308.8619 </r>
       <r>    -7.4863    16.0448   312.0000 </r>
       <r>    -7.3908     0.0000   312.0000 </r>
       <r>    -7.2953     0.0000   312.0000 </r>
       <r>    -7.1998     0.0000   312.0000 </r>
       <r>    -7.1043    39.5348   315.7757 </r>
       <r>    -7.0088    17.0825   318.0000 </r>
       <r>    -6.9133    18.5501   319.7716 </r>
       <r>    -6.8178    51.1881   325.1232 </r>
       <r>    -6.7223    43.9649   329.9999 </r>
       <r>    -6.6268    62.8243   336.0000 </r>
       <r>    -6.5313     0.0000   336.0000 </r>
       <r>    -6.4358     0.0040   336.0004 </r>
       <r>    -6.3403    67.2033   342.4186 </r>
       <r>    -6.2448    42.2020   347.6329 </r>
       <r>    -6.1493     0.0000   348.0000 </r>
       <r>    -6.0538    62.8245   354.0000 </r>
       <r>    -5.9583     0.0000   354.0000 </r>
       <r>    -5.8628     0.0000   354.0000 </r>
       <r>    -5.7673     0.0627   354.0060 </r>
       <r>    -5.6718    62.7617   360.0000 </r>
       <r>    -5.5763     0.0000   360.0000 </r>
       <r>    -5.4808    22.2207   362.1222 </r>
       <r>    -5.3853    26.0098   365.6531 </r>
       <r>    -5.2897    49.5185   372.0000 </r>
       <r>    -5.1942     0.0000   372.0000 </r>
       <r>    -5.0987     0.0000   372.0000 </r>
       <r>    -5.0032     0.0000   372.0000 </r>
       <r>    -4.9077     0.0000   372.0000 </r>
       <r>    -4.8122     6.2243   372.5944 </r>
       <r>    -4.7167    19.4027   374.6533 </r>
       <r>    -4.6212    30.7100   378.0000 </r>
       <r>    -4.5257     0.0000   378.0000 </r>
       <r>    -4.4302     0.0000   378.0000 </r>
       <r>    -4.3347     0.0000   378.0000 </r>
       <r>    -4.2392     0.0000   378.0000 </r>
       <r>    -4.1437     0.0000   378.0000 </r>
       <r>    -4.0482     0.0000   378.0000 </r>
       <r>    -3.9527     0.0000   378.0000 </r>
       <r>    -3.8572     0.0000   378.0000 </r>
       <r>    -3.7617     0.0000   378.0000 </r>
       <r>    -3.6662     0.0000   378.0000 </r>
       <r>    -3.5707     0.0000   378.0000 </r>
       <r>    -3.4752     0.0000   378.0000 </r>
       <r>    -3.3797     0.0000   378.0000 </r>
       <r>    -3.2842     0.0000   378.0000 </r>
       <r>    -3.1887     0.0000   378.0000 </r>
       <r>    -3.0932     0.0000   378.0000 </r>
       <r>    -2.9976     0.0000   378.0000 </r>
       <r>    -2.9021     0.0000   378.0000 </r>
       <r>    -2.8066     0.0000   378.0000 </r>
       <r>    -2.7111     0.0000   378.0000 </r>
       <r>    -2.6156     0.1105   378.0106 </r>
       <r>    -2.5201    11.0719   379.2917 </r>
       <r>    -2.4246    12.7908   380.8554 </r>
       <r>    -2.3291     7.0462   381.7397 </r>
       <r>    -2.2336    13.5585   384.0000 </r>
       <r>    -2.1381     0.0000   384.0000 </r>
       <r>    -2.0426     0.0000   384.0000 </r>
       <r>    -1.9471     0.0000   384.0000 </r>
       <r>    -1.8516    42.0347   388.0145 </r>
       <r>    -1.7561    65.6943   394.9108 </r>
       <r>    -1.6606    17.9409   396.9479 </r>
       <r>    -1.5651    44.5295   401.3195 </r>
       <r>    -1.4696    48.8296   408.0000 </r>
       <r>    -1.3741    51.5988   412.9279 </r>
       <r>    -1.2786     0.0000   414.0000 </r>
       <r>    -1.1831     0.0000   414.0000 </r>
       <r>    -1.0876     0.0000   414.0000 </r>
       <r>    -0.9921    62.4943   419.9685 </r>
       <r>    -0.8966     0.0000   420.0000 </r>
       <r>    -0.8011     0.0000   420.0000 </r>
       <r>    -0.7055     0.0000   420.0000 </r>
       <r>    -0.6100     0.0000   420.0000 </r>
       <r>    -0.5145     0.0000   420.0000 </r>
       <r>    -0.4190    36.7587   423.5106 </r>
       <r>    -0.3235     0.0000   426.0000 </r>
       <r>    -0.2280     0.0000   426.0000 </r>
       <r>    -0.1325     2.5127   426.2400 </r>
       <r>    -0.0370    18.3292   428.3841 </r>
       <r>     0.0585     8.3525   429.7313 </r>
       <r>     0.1540    11.7231   431.1196 </r>
       <r>     0.2495    53.5307   436.7805 </r>
       <r>     0.3450    61.0182   443.0315 </r>
       <r>     0.4405    18.2198   445.0070 </r>
       <r>     0.5360    30.4790   448.4815 </r>
       <r>     0.6315    28.4815   451.4878 </r>
       <r>     0.7270    40.2084   455.9749 </r>
       <r>     0.8225    39.2627   460.2540 </r>
       <r>     0.9180    29.6090   463.4617 </r>
       <r>     1.0135    75.9078   471.7527 </r>
       <r>     1.1090    28.5962   475.6670 </r>
       <r>     1.2045    42.5393   480.0985 </r>
       <r>     1.3000    52.8717   485.5187 </r>
       <r>     1.3955    69.6785   493.3225 </r>
       <r>     1.4910    89.9371   503.1571 </r>
       <r>     1.5866    53.5657   509.7520 </r>
       <r>     1.6821    13.5747   512.0000 </r>
       <r>     1.7776     0.0000   512.0000 </r>
       <r>     1.8731     0.0000   512.0000 </r>
       <r>     1.9686     0.0000   512.0000 </r>
       <r>     2.0641     0.0000   512.0000 </r>
       <r>     2.1596     0.0000   512.0000 </r>
       <r>     2.2551     0.0000   512.0000 </r>
       <r>     2.3506     0.0000   512.0000 </r>
       <r>     2.4461     0.0000   512.0000 </r>
       <r>     2.5416     0.0000   512.0000 </r>
       <r>     2.6371     0.0000   512.0000 </r>
       <r>     2.7326     0.0000   512.0000 </r>
       <r>     2.8281     0.0000   512.0000 </r>
       <r>     2.9236     0.0000   512.0000 </r>
      </set>
     </set>
    </array>
   </total>
  </dos>
 </calculation>
 <structure name="finalpos" >
  <crystal>
   <varray name="basis" >
    <v>      23.14683588      -0.00170649       0.00000000 </v>
    <v>      11.57194015      20.04491126       0.00000000 </v>
    <v>       0.00051540       0.00029754      20.00000000 </v>
   </varray>
   <i name="volume">   9279.92037311 </i>
   <varray name="rec_basis" >
    <v>       0.04320061      -0.02493974      -0.00000074 </v>
    <v>       0.00000368       0.04988585      -0.00000074 </v>
    <v>       0.00000000       0.00000000       0.05000000 </v>
   </varray>
  </crystal>
  <varray name="positions" >
   <v>       0.78692976       0.49237468       0.61778821 </v>
   <v>       0.74968408       0.62909876       0.51027206 </v>
   <v>       0.91884466       0.69058844       0.51028407 </v>
   <v>       0.91564081       0.39716636       0.51013695 </v>
   <v>       0.78646135       0.49311810       0.40258796 </v>
   <v>       0.59563845       0.62458887       0.51008133 </v>
   <v>       0.59451026       0.33336965       0.51018096 </v>
   <v>       0.65712596       0.39392119       0.51026929 </v>
   <v>       0.59127891       0.78304660       0.51001274 </v>
   <v>       0.59611992       0.07254963       0.51023926 </v>
   <v>       0.65686257       0.94937872       0.51025791 </v>
   <v>       0.45864548       0.72406880       0.61766072 </v>
   <v>       0.69074505       0.82059601       0.61768683 </v>
   <v>       0.49875583       0.29987710       0.61760389 </v>
   <v>       0.45975290       0.72355576       0.40244016 </v>
   <v>       0.69027790       0.81985680       0.40245495 </v>
   <v>       0.49760458       0.30055297       0.40232615 </v>
   <v>       0.36243260       0.39947402       0.50979180 </v>
   <v>       0.36375203       0.69052684       0.51023891 </v>
   <v>       0.36543719       0.24139226       0.51003095 </v>
   <v>       0.36054567       0.95192771       0.51022820 </v>
   <v>       0.30111137       0.62998864       0.51015090 </v>
   <v>       0.29983472       0.07509330       0.51029674 </v>
   <v>       0.17069992       0.53337631       0.61749973 </v>
   <v>       0.26617315       0.20418864       0.61782817 </v>
   <v>       0.20797357       0.39592815       0.51015811 </v>
   <v>       0.04198089       0.62798819       0.51020634 </v>
   <v>       0.03880196       0.33454278       0.51021515 </v>
   <v>       0.17154442       0.53096299       0.40228819 </v>
   <v>       0.26640574       0.20451673       0.40260923 </v>
   <v>       0.70673877       0.49342024       0.56990612 </v>
   <v>       0.76982593       0.74040369       0.56976338 </v>
   <v>       0.70644272       0.49393803       0.45062449 </v>
   <v>       0.76954992       0.73995437       0.45048800 </v>
   <v>       0.49710071       0.22112435       0.56959131 </v>
   <v>       0.49614457       0.22163460       0.45026208 </v>
   <v>       0.45990869       0.80307790       0.56972545 </v>
   <v>       0.46045213       0.80282997       0.45042375 </v>
   <v>       0.25101663       0.53184397       0.56935373 </v>
   <v>       0.18748387       0.28473488       0.56990833 </v>
   <v>       0.25178022       0.52985553       0.45008253 </v>
   <v>       0.18752775       0.28484689       0.45060522 </v>
   <v>       0.76383450       0.49505189       0.56929935 </v>
   <v>       0.71108594       0.79748539       0.56917839 </v>
   <v>       0.79278745       0.71093960       0.51019506 </v>
   <v>       0.94321938       0.53067577       0.51032407 </v>
   <v>       0.90841603       0.60229376       0.51034252 </v>
   <v>       0.83821644       0.63693323       0.51032482 </v>
   <v>       0.80414435       0.60140957       0.51029332 </v>
   <v>       0.83681913       0.53169243       0.51027045 </v>
   <v>       0.90720479       0.49503646       0.51027681 </v>
   <v>       0.94591157       0.63616017       0.51030502 </v>
   <v>       0.94362003       0.42361484       0.51021656 </v>
   <v>       0.76356873       0.49550371       0.45112911 </v>
   <v>       0.79156011       0.50346363       0.51022758 </v>
   <v>       0.71083708       0.79705244       0.45101413 </v>
   <v>       0.49722726       0.52942002       0.51027598 </v>
   <v>       0.56883439       0.49263118       0.51031882 </v>
   <v>       0.60344154       0.52822778       0.51030632 </v>
   <v>       0.56794455       0.59780937       0.51018471 </v>
   <v>       0.49824165       0.63478674       0.51018102 </v>
   <v>       0.60270018       0.42127298       0.51028544 </v>
   <v>       0.49661111       0.42280060       0.51021198 </v>
   <v>       0.56803939       0.38780337       0.51023174 </v>
   <v>       0.49589386       0.97662133       0.51025332 </v>
   <v>       0.49485572       0.87150785       0.51017672 </v>
   <v>       0.56444101       0.83751812       0.51010423 </v>
   <v>       0.60138453       0.87030599       0.51016313 </v>
   <v>       0.56754423       0.94070815       0.51023709 </v>
   <v>       0.60242996       0.97725409       0.51024598 </v>
   <v>       0.49750682       0.08274234       0.51021510 </v>
   <v>       0.56885867       0.04537610       0.51023172 </v>
   <v>       0.67740032       0.49975189       0.51029022 </v>
   <v>       0.49597757       0.27960704       0.56905701 </v>
   <v>       0.49041268       0.19836213       0.50996371 </v>
   <v>       0.67488875       0.82511720       0.51011312 </v>
   <v>       0.49523378       0.28000842       0.45085487 </v>
   <v>       0.48783923       0.31570085       0.51001669 </v>
   <v>       0.46159774       0.60105507       0.51025442 </v>
   <v>       0.39018463       0.63609706       0.51023596 </v>
   <v>       0.46100096       0.49444801       0.51023441 </v>
   <v>       0.45987739       0.38914319       0.51009132 </v>
   <v>       0.39015034       0.42622667       0.50993394 </v>
   <v>       0.35469806       0.49580067       0.50997523 </v>
   <v>       0.38939610       0.53129573       0.51016995 </v>
   <v>       0.35552886       0.60263995       0.51018397 </v>
   <v>       0.45918940       0.94170426       0.51024129 </v>
   <v>       0.38783269       0.97907181       0.51025189 </v>
   <v>       0.46080435       0.04782649       0.51025205 </v>
   <v>       0.38915916       0.08373103       0.51026876 </v>
   <v>       0.35535859       0.15411957       0.51022823 </v>
   <v>       0.39228616       0.18692158       0.51010386 </v>
   <v>       0.46184960       0.15294118       0.51011315 </v>
   <v>       0.35426528       0.04719585       0.51027818 </v>
   <v>       0.46146180       0.74439666       0.56916563 </v>
   <v>       0.46633940       0.82603371       0.51011106 </v>
   <v>       0.46204392       0.74413176       0.45097526 </v>
   <v>       0.46995552       0.70824220       0.51010331 </v>
   <v>       0.19386156       0.53030660       0.56894683 </v>
   <v>       0.28068182       0.52457083       0.50975642 </v>
   <v>       0.24590297       0.22734117       0.56932497 </v>
   <v>       0.16457982       0.31410573       0.51027509 </v>
   <v>       0.01442269       0.49445772       0.51033106 </v>
   <v>       0.05046447       0.53006949       0.51032571 </v>
   <v>       0.12085493       0.49335727       0.51027710 </v>
   <v>       0.15351446       0.42362234       0.51024851 </v>
   <v>       0.11939879       0.38814916       0.51029466 </v>
   <v>       0.04920541       0.42284349       0.51030534 </v>
   <v>       0.01403599       0.60150099       0.51028147 </v>
   <v>       0.01172684       0.38896822       0.51024580 </v>
   <v>       0.19442949       0.52876840       0.45078412 </v>
   <v>       0.16619959       0.52147762       0.51004491 </v>
   <v>       0.24599588       0.22750173       0.45114404 </v>
   <v>       0.28190732       0.19941622       0.51023932 </v>
  </varray>
 </structure>
</modeling>
