<?xml version="1.0" encoding="ISO-8859-1"?>
<modeling>
 <generator>
  <i name="program" type="string">vasp </i>
  <i name="version" type="string">5.4.4.18Apr17-6-g9f103f2a35  </i>
  <i name="subversion" type="string">(build Jun 07 2020 16:50:00) complex            parallel </i>
  <i name="platform" type="string">LinuxIFC </i>
  <i name="date" type="string">2023 02 21 </i>
  <i name="time" type="string">05:46:47 </i>
 </generator>
 <incar>
  <i type="string" name="SYSTEM">Simulation for cell shape cell volume r</i>
  <i type="int" name="ISTART">     1</i>
  <i type="string" name="PREC">high</i>
  <i type="string" name="ALGO">48</i>
  <i type="int" name="ICHARG">    11</i>
  <i type="int" name="NELM">   200</i>
  <i type="int" name="IBRION">    -1</i>
  <i name="EDIFF">      0.00001000</i>
  <i name="EDIFFG">     -0.01000000</i>
  <i type="int" name="NSW">     0</i>
  <i type="int" name="ISIF">     2</i>
  <i name="ENCUT">    500.00000000</i>
  <i name="POTIM">      0.30000000</i>
  <i type="string" name="LREAL">A</i>
  <i type="int" name="ISMEAR">     0</i>
  <i name="SIGMA">      0.01000000</i>
  <i type="int" name="NWRITE">     0</i>
  <i type="logical" name="LWAVE"> F  </i>
  <i type="logical" name="LCHARG"> F  </i>
  <v type="int" name="KPOINT_BSE">    -1     0     0     0</v>
  <i type="int" name="NELM">   200</i>
  <i type="string" name="GGA">PE</i>
 </incar>
 <structure name="primitive_cell" >
  <crystal>
   <varray name="basis" >
    <v>      29.22668170      -0.02538207       0.00000000 </v>
    <v>     -14.63513782      25.35887913       0.00000000 </v>
    <v>       0.00000000       0.00000000      20.00000000 </v>
   </varray>
   <i name="volume">  14815.68837272 </i>
   <varray name="rec_basis" >
    <v>       0.03423247       0.01975627       0.00000000 </v>
    <v>       0.00003426       0.03945369       0.00000000 </v>
    <v>       0.00000000       0.00000000       0.05000000 </v>
   </varray>
  </crystal>
  <varray name="positions" >
   <v>       0.11822069      -0.36816652      -0.46859750 </v>
   <v>       0.13928513      -0.38904330      -0.48094299 </v>
   <v>       0.19423974      -0.36156379      -0.48182596 </v>
   <v>       0.11111555      -0.44289228      -0.49782581 </v>
   <v>       0.21627771      -0.31963955      -0.46991686 </v>
   <v>       0.04202674      -0.43127743      -0.38994608 </v>
   <v>       0.05273340      -0.47285986      -0.49880812 </v>
   <v>       0.03356726      -0.39531613      -0.38026078 </v>
   <v>       0.02048574      -0.46762455      -0.44995412 </v>
   <v>       0.07124373      -0.44175874      -0.34600673 </v>
   <v>       0.07474144      -0.47147856      -0.36178171 </v>
   <v>       0.22212746      -0.38760208      -0.49796606 </v>
   <v>       0.13911653      -0.46861585       0.48442098 </v>
   <v>       0.19401703      -0.44148105       0.48543430 </v>
   <v>       0.02976479       0.49311675       0.45028707 </v>
   <v>      -0.03217316      -0.49491886      -0.45341751 </v>
   <v>       0.11709687       0.48993768       0.46992429 </v>
   <v>       0.28059250      -0.35848863      -0.49792321 </v>
   <v>      -0.02290180       0.46593949       0.44675568 </v>
   <v>       0.30541056      -0.30546891      -0.49900990 </v>
   <v>      -0.05516177       0.47119099       0.49558566 </v>
   <v>       0.21597238      -0.46133682       0.47279592 </v>
   <v>       0.32039349      -0.21636768       0.47092587 </v>
   <v>       0.30519670      -0.38689785      -0.49688169 </v>
   <v>      -0.11873387      -0.49095717      -0.47231186 </v>
   <v>      -0.04448805       0.42985591       0.38653441 </v>
   <v>       0.35851459      -0.28085349      -0.49822542 </v>
   <v>      -0.07530309       0.47159550       0.35753111 </v>
   <v>      -0.11354203       0.44167033       0.49430845 </v>
   <v>       0.36218601      -0.19444805       0.48397687 </v>
   <v>      -0.14109413       0.46776144      -0.48746891 </v>
   <v>      -0.07252721       0.44141714       0.34196703 </v>
   <v>       0.38787086      -0.22249699      -0.49862899 </v>
   <v>      -0.03702318       0.39321851       0.37717055 </v>
   <v>       0.35832870      -0.35860293      -0.49693527 </v>
   <v>       0.38681255      -0.30559251      -0.49715265 </v>
   <v>       0.38997853      -0.13964955       0.48283626 </v>
   <v>       0.37058150      -0.11769396       0.46788440 </v>
   <v>      -0.14215917       0.38800265       0.47663714 </v>
   <v>      -0.12146894       0.36681674       0.46398106 </v>
   <v>       0.31941870      -0.46162496      -0.46846463 </v>
   <v>      -0.19597514       0.44119400      -0.48884130 </v>
   <v>       0.38744521      -0.38786175      -0.49699659 </v>
   <v>       0.44178609      -0.19462301      -0.48201019 </v>
   <v>       0.36134270      -0.44175656      -0.48078135 </v>
   <v>      -0.21756493       0.46134999      -0.47582155 </v>
   <v>       0.44368100      -0.11165150      -0.49890104 </v>
   <v>      -0.19711873       0.36106988       0.47714935 </v>
   <v>       0.46162024      -0.21660987      -0.46951135 </v>
   <v>      -0.22454294       0.38750248       0.49370121 </v>
   <v>       0.46930518      -0.13977227      -0.48140859 </v>
   <v>       0.44132740      -0.36212508       0.48590826 </v>
   <v>       0.46124370      -0.32033975       0.47320440 </v>
   <v>       0.45295265      -0.07398199      -0.36151987 </v>
   <v>      -0.21952166       0.31926844       0.46465760 </v>
   <v>       0.38874032      -0.46922886      -0.48042005 </v>
   <v>       0.47203933      -0.05338550      -0.49977583 </v>
   <v>       0.36774765       0.48883741      -0.46814457 </v>
   <v>      -0.48875665      -0.11878070      -0.46876272 </v>
   <v>       0.46042624      -0.03035895       0.44993779 </v>
   <v>       0.48624419      -0.07093324      -0.34665575 </v>
   <v>      -0.28299929       0.35897541       0.49336115 </v>
   <v>       0.46840310      -0.38986382       0.48450297 </v>
   <v>       0.44260644      -0.44357147      -0.49774125 </v>
   <v>      -0.30708902       0.38788778       0.49324545 </v>
   <v>      -0.49004473      -0.02120040      -0.45128679 </v>
   <v>      -0.47464084      -0.04265374      -0.39175420 </v>
   <v>       0.42572160       0.03691292       0.38043897 </v>
   <v>       0.48556575       0.02219446       0.44674607 </v>
   <v>      -0.32007274       0.46320837       0.46476532 </v>
   <v>      -0.30832839       0.30593072       0.49332792 </v>
   <v>      -0.49014591      -0.37042665       0.46969056 </v>
   <v>       0.46988590       0.04373082       0.38758455 </v>
   <v>       0.44073935      -0.48647967      -0.34603340 </v>
   <v>      -0.46477595       0.03135100      -0.45463949 </v>
   <v>       0.47103359      -0.45325963      -0.36087736 </v>
   <v>      -0.43023795      -0.03488864      -0.38338998 </v>
   <v>      -0.47637268       0.05438727       0.49509504 </v>
   <v>      -0.36023924       0.36007683       0.49319229 </v>
   <v>       0.47246560      -0.47199534      -0.49899370 </v>
   <v>       0.42975665       0.47449384      -0.39120922 </v>
   <v>       0.39310112       0.43019077      -0.38278891 </v>
   <v>      -0.36199673       0.44383422       0.47695683 </v>
   <v>      -0.32400994       0.21680760      -0.47624821 </v>
   <v>      -0.36141317       0.28184426       0.49331920 </v>
   <v>      -0.49157097       0.07098147       0.34143831 </v>
   <v>       0.46649484       0.48982262      -0.45088133 </v>
   <v>      -0.38872708       0.38994864       0.49326517 </v>
   <v>      -0.36729200      -0.48615341       0.46403873 </v>
   <v>       0.48499423       0.12035604       0.46409622 </v>
   <v>      -0.38925121       0.30708404       0.49323290 </v>
   <v>      -0.49284333      -0.46031657       0.45069681 </v>
   <v>      -0.45841594       0.07325579       0.35534071 </v>
   <v>      -0.38876577       0.47192279       0.47637027 </v>
   <v>      -0.44772708       0.11266477       0.49402138 </v>
   <v>      -0.36583675       0.19512872      -0.48916054 </v>
   <v>      -0.39122035       0.22349741       0.49358600 </v>
   <v>      -0.47304390       0.14109624       0.47659878 </v>
   <v>       0.49344825       0.46422194      -0.45471035 </v>
   <v>      -0.44260077       0.36481138      -0.48975859 </v>
   <v>      -0.46571793      -0.48575377       0.44705511 </v>
   <v>      -0.39170918      -0.42592219       0.37985172 </v>
   <v>      -0.44262143       0.44686997       0.49357425 </v>
   <v>      -0.37483019       0.11814229      -0.47299223 </v>
   <v>      -0.39397502       0.14034505      -0.48790976 </v>
   <v>      -0.46299562       0.32303929      -0.47693166 </v>
   <v>      -0.47193953       0.47582401       0.49494819 </v>
   <v>      -0.46904826       0.39316174      -0.48858907 </v>
   <v>      -0.44517075       0.19595994       0.47714717 </v>
   <v>      -0.42861838      -0.47017191       0.38775704 </v>
   <v>      -0.43958485       0.49096033       0.34233798 </v>
   <v>      -0.46477326       0.21818969       0.46475267 </v>
   <v>      -0.47017470       0.45780146       0.35674263 </v>
   <v>       0.48951007       0.37423702      -0.47383893 </v>
  </varray>
 </structure>
 <varray name="primitive_index" >
  <v type="int" >        1 </v>
  <v type="int" >       43 </v>
  <v type="int" >       42 </v>
  <v type="int" >       44 </v>
  <v type="int" >        2 </v>
  <v type="int" >       88 </v>
  <v type="int" >       86 </v>
  <v type="int" >      112 </v>
  <v type="int" >       87 </v>
  <v type="int" >      113 </v>
  <v type="int" >       29 </v>
  <v type="int" >       41 </v>
  <v type="int" >       45 </v>
  <v type="int" >       46 </v>
  <v type="int" >       99 </v>
  <v type="int" >      101 </v>
  <v type="int" >        3 </v>
  <v type="int" >       32 </v>
  <v type="int" >       77 </v>
  <v type="int" >       92 </v>
  <v type="int" >       78 </v>
  <v type="int" >        4 </v>
  <v type="int" >       12 </v>
  <v type="int" >       94 </v>
  <v type="int" >       15 </v>
  <v type="int" >       79 </v>
  <v type="int" >       33 </v>
  <v type="int" >       26 </v>
  <v type="int" >       65 </v>
  <v type="int" >       36 </v>
  <v type="int" >       66 </v>
  <v type="int" >      107 </v>
  <v type="int" >       35 </v>
  <v type="int" >      106 </v>
  <v type="int" >       34 </v>
  <v type="int" >       93 </v>
  <v type="int" >       37 </v>
  <v type="int" >       11 </v>
  <v type="int" >       64 </v>
  <v type="int" >       13 </v>
  <v type="int" >        5 </v>
  <v type="int" >       67 </v>
  <v type="int" >       47 </v>
  <v type="int" >       40 </v>
  <v type="int" >       48 </v>
  <v type="int" >       16 </v>
  <v type="int" >       38 </v>
  <v type="int" >       63 </v>
  <v type="int" >        9 </v>
  <v type="int" >       62 </v>
  <v type="int" >       39 </v>
  <v type="int" >       52 </v>
  <v type="int" >        7 </v>
  <v type="int" >       28 </v>
  <v type="int" >       14 </v>
  <v type="int" >       49 </v>
  <v type="int" >       83 </v>
  <v type="int" >        6 </v>
  <v type="int" >       10 </v>
  <v type="int" >       98 </v>
  <v type="int" >      111 </v>
  <v type="int" >       53 </v>
  <v type="int" >       51 </v>
  <v type="int" >       50 </v>
  <v type="int" >       97 </v>
  <v type="int" >       84 </v>
  <v type="int" >       85 </v>
  <v type="int" >      104 </v>
  <v type="int" >       74 </v>
  <v type="int" >       17 </v>
  <v type="int" >       95 </v>
  <v type="int" >        8 </v>
  <v type="int" >       76 </v>
  <v type="int" >      114 </v>
  <v type="int" >      100 </v>
  <v type="int" >       30 </v>
  <v type="int" >      110 </v>
  <v type="int" >       75 </v>
  <v type="int" >       55 </v>
  <v type="int" >       89 </v>
  <v type="int" >       90 </v>
  <v type="int" >      103 </v>
  <v type="int" >       69 </v>
  <v type="int" >       24 </v>
  <v type="int" >       54 </v>
  <v type="int" >      105 </v>
  <v type="int" >       31 </v>
  <v type="int" >       68 </v>
  <v type="int" >       18 </v>
  <v type="int" >       22 </v>
  <v type="int" >       96 </v>
  <v type="int" >       91 </v>
  <v type="int" >       25 </v>
  <v type="int" >       70 </v>
  <v type="int" >       59 </v>
  <v type="int" >       57 </v>
  <v type="int" >       56 </v>
  <v type="int" >       60 </v>
  <v type="int" >      102 </v>
  <v type="int" >       73 </v>
  <v type="int" >       80 </v>
  <v type="int" >      108 </v>
  <v type="int" >       71 </v>
  <v type="int" >       23 </v>
  <v type="int" >       58 </v>
  <v type="int" >       19 </v>
  <v type="int" >       81 </v>
  <v type="int" >       72 </v>
  <v type="int" >       61 </v>
  <v type="int" >       82 </v>
  <v type="int" >      109 </v>
  <v type="int" >       21 </v>
  <v type="int" >       27 </v>
  <v type="int" >       20 </v>
 </varray>
 <kpoints>
  <generation param="listgenerated">
   <i name="divisions" type="int">      20 </i>
   <v>       0.00000000       0.00000000       0.00000000 </v>
   <v>       0.50000000       0.00000000       0.00000000 </v>
   <v>       0.33333333       0.33333333       0.00000000 </v>
   <v>       0.00000000       0.00000000       0.00000000 </v>
  </generation>
  <varray name="kpointlist" >
   <v>       0.00000000       0.00000000       0.00000000 </v>
   <v>       0.02631579       0.00000000       0.00000000 </v>
   <v>       0.05263158       0.00000000       0.00000000 </v>
   <v>       0.07894737       0.00000000       0.00000000 </v>
   <v>       0.10526316       0.00000000       0.00000000 </v>
   <v>       0.13157895       0.00000000       0.00000000 </v>
   <v>       0.15789474       0.00000000       0.00000000 </v>
   <v>       0.18421053       0.00000000       0.00000000 </v>
   <v>       0.21052632       0.00000000       0.00000000 </v>
   <v>       0.23684211       0.00000000       0.00000000 </v>
   <v>       0.26315789       0.00000000       0.00000000 </v>
   <v>       0.28947368       0.00000000       0.00000000 </v>
   <v>       0.31578947       0.00000000       0.00000000 </v>
   <v>       0.34210526       0.00000000       0.00000000 </v>
   <v>       0.36842105       0.00000000       0.00000000 </v>
   <v>       0.39473684       0.00000000       0.00000000 </v>
   <v>       0.42105263       0.00000000       0.00000000 </v>
   <v>       0.44736842       0.00000000       0.00000000 </v>
   <v>       0.47368421       0.00000000       0.00000000 </v>
   <v>       0.50000000       0.00000000       0.00000000 </v>
   <v>       0.50000000       0.00000000       0.00000000 </v>
   <v>       0.49122807       0.01754386       0.00000000 </v>
   <v>       0.48245614       0.03508772       0.00000000 </v>
   <v>       0.47368421       0.05263158       0.00000000 </v>
   <v>       0.46491228       0.07017544       0.00000000 </v>
   <v>       0.45614035       0.08771930       0.00000000 </v>
   <v>       0.44736842       0.10526316       0.00000000 </v>
   <v>       0.43859649       0.12280702       0.00000000 </v>
   <v>       0.42982456       0.14035088       0.00000000 </v>
   <v>       0.42105263       0.15789474       0.00000000 </v>
   <v>       0.41228070       0.17543860       0.00000000 </v>
   <v>       0.40350877       0.19298246       0.00000000 </v>
   <v>       0.39473684       0.21052632       0.00000000 </v>
   <v>       0.38596491       0.22807018       0.00000000 </v>
   <v>       0.37719298       0.24561404       0.00000000 </v>
   <v>       0.36842105       0.26315789       0.00000000 </v>
   <v>       0.35964912       0.28070175       0.00000000 </v>
   <v>       0.35087719       0.29824561       0.00000000 </v>
   <v>       0.34210526       0.31578947       0.00000000 </v>
   <v>       0.33333333       0.33333333       0.00000000 </v>
   <v>       0.33333333       0.33333333       0.00000000 </v>
   <v>       0.31578947       0.31578947       0.00000000 </v>
   <v>       0.29824561       0.29824561       0.00000000 </v>
   <v>       0.28070175       0.28070175       0.00000000 </v>
   <v>       0.26315789       0.26315789       0.00000000 </v>
   <v>       0.24561404       0.24561404       0.00000000 </v>
   <v>       0.22807018       0.22807018       0.00000000 </v>
   <v>       0.21052632       0.21052632       0.00000000 </v>
   <v>       0.19298246       0.19298246       0.00000000 </v>
   <v>       0.17543860       0.17543860       0.00000000 </v>
   <v>       0.15789474       0.15789474       0.00000000 </v>
   <v>       0.14035088       0.14035088       0.00000000 </v>
   <v>       0.12280702       0.12280702       0.00000000 </v>
   <v>       0.10526316       0.10526316       0.00000000 </v>
   <v>       0.08771930       0.08771930       0.00000000 </v>
   <v>       0.07017544       0.07017544       0.00000000 </v>
   <v>       0.05263158       0.05263158       0.00000000 </v>
   <v>       0.03508772       0.03508772       0.00000000 </v>
   <v>       0.01754386       0.01754386       0.00000000 </v>
   <v>       0.00000000       0.00000000       0.00000000 </v>
  </varray>
  <varray name="weights" >
   <v>       0.01666667 </v>
   <v>       0.01666667 </v>
   <v>       0.01666667 </v>
   <v>       0.01666667 </v>
   <v>       0.01666667 </v>
   <v>       0.01666667 </v>
   <v>       0.01666667 </v>
   <v>       0.01666667 </v>
   <v>       0.01666667 </v>
   <v>       0.01666667 </v>
   <v>       0.01666667 </v>
   <v>       0.01666667 </v>
   <v>       0.01666667 </v>
   <v>       0.01666667 </v>
   <v>       0.01666667 </v>
   <v>       0.01666667 </v>
   <v>       0.01666667 </v>
   <v>       0.01666667 </v>
   <v>       0.01666667 </v>
   <v>       0.01666667 </v>
   <v>       0.01666667 </v>
   <v>       0.01666667 </v>
   <v>       0.01666667 </v>
   <v>       0.01666667 </v>
   <v>       0.01666667 </v>
   <v>       0.01666667 </v>
   <v>       0.01666667 </v>
   <v>       0.01666667 </v>
   <v>       0.01666667 </v>
   <v>       0.01666667 </v>
   <v>       0.01666667 </v>
   <v>       0.01666667 </v>
   <v>       0.01666667 </v>
   <v>       0.01666667 </v>
   <v>       0.01666667 </v>
   <v>       0.01666667 </v>
   <v>       0.01666667 </v>
   <v>       0.01666667 </v>
   <v>       0.01666667 </v>
   <v>       0.01666667 </v>
   <v>       0.01666667 </v>
   <v>       0.01666667 </v>
   <v>       0.01666667 </v>
   <v>       0.01666667 </v>
   <v>       0.01666667 </v>
   <v>       0.01666667 </v>
   <v>       0.01666667 </v>
   <v>       0.01666667 </v>
   <v>       0.01666667 </v>
   <v>       0.01666667 </v>
   <v>       0.01666667 </v>
   <v>       0.01666667 </v>
   <v>       0.01666667 </v>
   <v>       0.01666667 </v>
   <v>       0.01666667 </v>
   <v>       0.01666667 </v>
   <v>       0.01666667 </v>
   <v>       0.01666667 </v>
   <v>       0.01666667 </v>
   <v>       0.01666667 </v>
  </varray>
 </kpoints>
 <parameters>
  <separator name="general" >
   <i type="string" name="SYSTEM">Simulation for cell shape cell volume r</i>
   <i type="logical" name="LCOMPAT"> F  </i>
  </separator>
  <separator name="electronic" >
   <i type="string" name="PREC">high</i>
   <i name="ENMAX">    500.00000000</i>
   <i name="ENAUG">    644.87300000</i>
   <i name="EDIFF">      0.00001000</i>
   <i type="int" name="IALGO">    38</i>
   <i type="int" name="IWAVPR">    10</i>
   <i type="int" name="NBANDS">   272</i>
   <i name="NELECT">    402.00000000</i>
   <i type="int" name="TURBO">     0</i>
   <i type="int" name="IRESTART">     0</i>
   <i type="int" name="NREBOOT">     0</i>
   <i type="int" name="NMIN">     0</i>
   <i name="EREF">      0.00000000</i>
   <separator name="electronic smearing" >
    <i type="int" name="ISMEAR">     0</i>
    <i name="SIGMA">      0.01000000</i>
    <i name="KSPACING">      0.50000000</i>
    <i type="logical" name="KGAMMA"> T  </i>
   </separator>
   <separator name="electronic projectors" >
    <i type="logical" name="LREAL"> T  </i>
    <v name="ROPT">     -0.00040000     -0.00040000     -0.00040000     -0.00040000</v>
    <i type="int" name="LMAXPAW">  -100</i>
    <i type="int" name="LMAXMIX">     2</i>
    <i type="logical" name="NLSPLINE"> F  </i>
   </separator>
   <separator name="electronic startup" >
    <i type="int" name="ISTART">     1</i>
    <i type="int" name="ICHARG">    11</i>
    <i type="int" name="INIWAV">     1</i>
   </separator>
   <separator name="electronic spin" >
    <i type="int" name="ISPIN">     1</i>
    <i type="logical" name="LNONCOLLINEAR"> F  </i>
    <v name="MAGMOM">      1.00000000      1.00000000      1.00000000      1.00000000      1.00000000      1.00000000      1.00000000      1.00000000      1.00000000      1.00000000      1.00000000      1.00000000      1.00000000      1.00000000      1.00000000      1.00000000      1.00000000      1.00000000      1.00000000      1.00000000
      1.00000000      1.00000000      1.00000000      1.00000000      1.00000000      1.00000000      1.00000000      1.00000000      1.00000000      1.00000000      1.00000000      1.00000000      1.00000000      1.00000000      1.00000000      1.00000000      1.00000000      1.00000000      1.00000000      1.00000000
      1.00000000      1.00000000      1.00000000      1.00000000      1.00000000      1.00000000      1.00000000      1.00000000      1.00000000      1.00000000      1.00000000      1.00000000      1.00000000      1.00000000      1.00000000      1.00000000      1.00000000      1.00000000      1.00000000      1.00000000
      1.00000000      1.00000000      1.00000000      1.00000000      1.00000000      1.00000000      1.00000000      1.00000000      1.00000000      1.00000000      1.00000000      1.00000000      1.00000000      1.00000000      1.00000000      1.00000000      1.00000000      1.00000000      1.00000000      1.00000000
      1.00000000      1.00000000      1.00000000      1.00000000      1.00000000      1.00000000      1.00000000      1.00000000      1.00000000      1.00000000      1.00000000      1.00000000      1.00000000      1.00000000      1.00000000      1.00000000      1.00000000      1.00000000      1.00000000      1.00000000
      1.00000000      1.00000000      1.00000000      1.00000000      1.00000000      1.00000000      1.00000000      1.00000000      1.00000000      1.00000000      1.00000000      1.00000000      1.00000000      1.00000000</v>
    <i name="NUPDOWN">     -1.00000000</i>
    <i type="logical" name="LSORBIT"> F  </i>
    <v name="SAXIS">      0.00000000      0.00000000      1.00000000</v>
    <i type="logical" name="LSPIRAL"> F  </i>
    <v name="QSPIRAL">      0.00000000      0.00000000      0.00000000</v>
    <i type="logical" name="LZEROZ"> F  </i>
   </separator>
   <separator name="electronic exchange-correlation" >
    <i type="logical" name="LASPH"> F  </i>
    <i type="logical" name="LMETAGGA"> F  </i>
   </separator>
   <separator name="electronic convergence" >
    <i type="int" name="NELM">   200</i>
    <i type="int" name="NELMDL">     0</i>
    <i type="int" name="NELMIN">     2</i>
    <i name="ENINI">    500.00000000</i>
    <separator name="electronic convergence detail" >
     <i type="logical" name="LDIAG"> T  </i>
     <i type="logical" name="LSUBROT"> F  </i>
     <i name="WEIMIN">      0.00000000</i>
     <i name="EBREAK">      0.00000001</i>
     <i name="DEPER">      0.30000000</i>
     <i type="int" name="NRMM">     4</i>
     <i name="TIME">      0.40000000</i>
    </separator>
   </separator>
   <separator name="electronic mixer" >
    <i name="AMIX">      0.40000000</i>
    <i name="BMIX">      1.00000000</i>
    <i name="AMIN">      0.10000000</i>
    <i name="AMIX_MAG">      1.60000000</i>
    <i name="BMIX_MAG">      1.00000000</i>
    <separator name="electronic mixer details" >
     <i type="int" name="IMIX">     4</i>
     <i type="logical" name="MIXFIRST"> F  </i>
     <i type="int" name="MAXMIX">   -45</i>
     <i name="WC">    100.00000000</i>
     <i type="int" name="INIMIX">     1</i>
     <i type="int" name="MIXPRE">     1</i>
     <i type="int" name="MREMOVE">     5</i>
    </separator>
   </separator>
   <separator name="electronic dipolcorrection" >
    <i type="logical" name="LDIPOL"> F  </i>
    <i type="logical" name="LMONO"> F  </i>
    <i type="int" name="IDIPOL">     0</i>
    <i name="EPSILON">      1.00000000</i>
    <v name="DIPOL">   -100.00000000   -100.00000000   -100.00000000</v>
    <i name="EFIELD">      0.00000000</i>
   </separator>
  </separator>
  <separator name="grids" >
   <i type="int" name="NGX">   216</i>
   <i type="int" name="NGY">   216</i>
   <i type="int" name="NGZ">   150</i>
   <i type="int" name="NGXF">   324</i>
   <i type="int" name="NGYF">   324</i>
   <i type="int" name="NGZF">   224</i>
   <i type="logical" name="ADDGRID"> F  </i>
  </separator>
  <separator name="ionic" >
   <i type="int" name="NSW">     0</i>
   <i type="int" name="IBRION">    -1</i>
   <i type="int" name="MDALGO">     0</i>
   <i type="int" name="ISIF">     2</i>
   <i name="PSTRESS">      0.00000000</i>
   <i name="EDIFFG">     -0.01000000</i>
   <i type="int" name="NFREE">     0</i>
   <i name="POTIM">      0.30000000</i>
   <i name="SMASS">     -3.00000000</i>
   <i name="SCALEE">      1.00000000</i>
  </separator>
  <separator name="ionic md" >
   <i name="TEBEG">      0.00010000</i>
   <i name="TEEND">      0.00010000</i>
   <i type="int" name="NBLOCK">     1</i>
   <i type="int" name="KBLOCK">     1</i>
   <i type="int" name="NPACO">   256</i>
   <i name="APACO">     16.00000000</i>
  </separator>
  <separator name="symmetry" >
   <i type="int" name="ISYM">     2</i>
   <i name="SYMPREC">      0.00001000</i>
  </separator>
  <separator name="dos" >
   <i type="int" name="LORBIT">     0</i>
   <v name="RWIGS">     -1.00000000     -1.00000000     -1.00000000     -1.00000000</v>
   <i type="int" name="NEDOS">   301</i>
   <i name="EMIN">     10.00000000</i>
   <i name="EMAX">    -10.00000000</i>
   <i name="EFERMI">      0.00000000</i>
  </separator>
  <separator name="writing" >
   <i type="int" name="NWRITE">     0</i>
   <i type="logical" name="LWAVE"> F  </i>
   <i type="logical" name="LDOWNSAMPLE"> F  </i>
   <i type="logical" name="LCHARG"> F  </i>
   <i type="logical" name="LPARD"> F  </i>
   <i type="logical" name="LVTOT"> F  </i>
   <i type="logical" name="LVHAR"> F  </i>
   <i type="logical" name="LELF"> F  </i>
   <i type="logical" name="LOPTICS"> F  </i>
   <v name="STM">      0.00000000      0.00000000      0.00000000      0.00000000      0.00000000      0.00000000      0.00000000</v>
  </separator>
  <separator name="performance" >
   <i type="int" name="NPAR">    16</i>
   <i type="int" name="NSIM">     4</i>
   <i type="int" name="NBLK">    -1</i>
   <i type="logical" name="LPLANE"> T  </i>
   <i type="logical" name="LSCALAPACK"> T  </i>
   <i type="logical" name="LSCAAWARE"> F  </i>
   <i type="logical" name="LSCALU"> F  </i>
   <i type="logical" name="LASYNC"> F  </i>
   <i type="logical" name="LORBITALREAL"> F  </i>
  </separator>
  <separator name="miscellaneous" >
   <i type="int" name="IDIOT">     3</i>
   <i type="int" name="ISPECIAL">     0</i>
   <i type="logical" name="LMUSIC"> F  </i>
   <v name="POMASS">      1.00000000     12.01100000     14.00100000     16.00000000</v>
   <v name="DARWINR">      0.00000000      0.00000000      0.00000000      0.00000000</v>
   <v name="DARWINV">      1.00000000      1.00000000      1.00000000      1.00000000</v>
   <i type="logical" name="LCORR"> T  </i>
  </separator>
  <i type="logical" name="GGA_COMPAT"> T  </i>
  <i type="logical" name="LBERRY"> F  </i>
  <i type="int" name="ICORELEVEL">     0</i>
  <i type="logical" name="LDAU"> F  </i>
  <i type="int" name="I_CONSTRAINED_M">     0</i>
  <separator name="electronic exchange-correlation" >
   <i type="string" name="GGA">PE</i>
   <i type="int" name="VOSKOWN">     0</i>
   <i type="logical" name="LHFCALC"> F  </i>
   <i type="string" name="PRECFOCK"></i>
   <i type="logical" name="LSYMGRAD"> F  </i>
   <i type="logical" name="LHFONE"> F  </i>
   <i type="logical" name="LRHFCALC"> F  </i>
   <i type="logical" name="LTHOMAS"> F  </i>
   <i type="logical" name="LMODELHF"> F  </i>
   <i name="ENCUT4O">     -1.00000000</i>
   <i type="int" name="EXXOEP">     0</i>
   <i type="int" name="FOURORBIT">     0</i>
   <i name="AEXX">      0.00000000</i>
   <i name="HFALPHA">      0.00000000</i>
   <i name="MCALPHA">      0.00000000</i>
   <i name="ALDAX">      1.00000000</i>
   <i name="AGGAX">      1.00000000</i>
   <i name="ALDAC">      1.00000000</i>
   <i name="AGGAC">      1.00000000</i>
   <i type="int" name="NKREDX">     1</i>
   <i type="int" name="NKREDY">     1</i>
   <i type="int" name="NKREDZ">     1</i>
   <i type="logical" name="SHIFTRED"> F  </i>
   <i type="logical" name="ODDONLY"> F  </i>
   <i type="logical" name="EVENONLY"> F  </i>
   <i type="int" name="LMAXFOCK">     0</i>
   <i type="int" name="NMAXFOCKAE">     0</i>
   <i type="logical" name="LFOCKAEDFT"> F  </i>
   <i name="HFSCREEN">      0.00000000</i>
   <i name="HFSCREENC">      0.00000000</i>
   <i type="int" name="NBANDSGWLOW">     0</i>
  </separator>
  <separator name="vdW DFT" >
   <i type="logical" name="LUSE_VDW"> F  </i>
   <i name="Zab_VDW">     -0.84910000</i>
   <i name="PARAM1">      0.12340000</i>
   <i name="PARAM2">      1.00000000</i>
   <i name="PARAM3">      0.00000000</i>
  </separator>
  <separator name="model GW" >
   <i type="int" name="MODEL_GW">     0</i>
   <i name="MODEL_EPS0">     77.97730722</i>
   <i name="MODEL_ALPHA">      1.00000000</i>
  </separator>
  <separator name="linear response parameters" >
   <i type="logical" name="LEPSILON"> F  </i>
   <i type="logical" name="LRPA"> F  </i>
   <i type="logical" name="LNABLA"> F  </i>
   <i type="logical" name="LVEL"> F  </i>
   <i type="int" name="KINTER">     0</i>
   <i name="CSHIFT">      0.10000000</i>
   <i name="OMEGAMAX">     -1.00000000</i>
   <i name="DEG_THRESHOLD">      0.00200000</i>
   <i name="RTIME">     -0.10000000</i>
   <i name="WPLASMAI">      0.00000000</i>
   <v name="DFIELD">      0.00000000      0.00000000      0.00000000</v>
   <v name="WPLASMA">      0.00000000      0.00000000      0.00000000      0.00000000      0.00000000      0.00000000      0.00000000      0.00000000      0.00000000</v>
  </separator>
  <separator name="orbital magnetization" >
   <i type="logical" name="NUCIND"> F  </i>
   <v name="MAGPOS">      0.00000000      0.00000000      0.00000000</v>
   <i type="logical" name="LNICSALL"> T  </i>
   <i type="logical" name="ORBITALMAG"> F  </i>
   <i type="logical" name="LMAGBLOCH"> F  </i>
   <i type="logical" name="LCHIMAG"> F  </i>
   <i type="logical" name="LGAUGE"> T  </i>
   <i type="int" name="MAGATOM">     0</i>
   <v name="MAGDIPOL">      0.00000000      0.00000000      0.00000000</v>
   <v name="AVECCONST">      0.00000000      0.00000000      0.00000000</v>
  </separator>
  <separator name="response functions" >
   <i type="logical" name="LADDER"> F  </i>
   <i type="logical" name="LRPAFORCE"> F  </i>
   <i type="logical" name="LFXC"> F  </i>
   <i type="logical" name="LHARTREE"> T  </i>
   <i type="int" name="IBSE">     0</i>
   <v type="int" name="KPOINT">    -1     0     0     0</v>
   <i type="logical" name="LTCTE"> F  </i>
   <i type="logical" name="LTETE"> F  </i>
   <i type="logical" name="LTRIPLET"> F  </i>
   <i type="logical" name="LFXCEPS"> F  </i>
   <i type="logical" name="LFXHEG"> F  </i>
   <i type="int" name="NATURALO">     2</i>
   <i type="logical" name="L2ORDER"> F  </i>
   <i type="logical" name="LMP2LT"> F  </i>
   <i type="logical" name="LUSEW"> F  </i>
   <i name="ENCUTGW">     -2.00000000</i>
   <i name="ENCUTGWSOFT">     -2.00000000</i>
   <i name="ENCUTLF">     -1.00000000</i>
   <i type="int" name="LMAXMP2">    -1</i>
   <i name="SCISSOR">      0.00000000</i>
   <i type="int" name="NOMEGA">     0</i>
   <i type="int" name="NOMEGAR">     0</i>
   <i type="int" name="NBANDSGW">    -1</i>
   <i type="int" name="NBANDSO">    -1</i>
   <i type="int" name="NBANDSV">    -1</i>
   <i type="int" name="NELM">   200</i>
   <i type="int" name="NELMHF">     1</i>
   <i type="int" name="DIM">     3</i>
   <i type="int" name="ANTIRES">     0</i>
   <i name="OMEGAMAX">    -30.00000000</i>
   <i name="OMEGAMIN">    -30.00000000</i>
   <i name="OMEGATL">   -200.00000000</i>
   <i type="int" name="OMEGAGRID">   140</i>
   <i name="CSHIFT">     -0.10000000</i>
   <i type="logical" name="SELFENERGY"> F  </i>
   <i type="logical" name="LSPECTRAL"> F  </i>
   <i type="logical" name="LSPECTRALGW"> F  </i>
   <i type="logical" name="LSINGLES"> F  </i>
   <i type="logical" name="LFERMIGW"> F  </i>
   <i type="logical" name="ODDONLYGW"> F  </i>
   <i type="logical" name="EVENONLYGW"> F  </i>
   <i type="int" name="NKREDLFX">     1</i>
   <i type="int" name="NKREDLFY">     1</i>
   <i type="int" name="NKREDLFZ">     1</i>
   <i type="int" name="MAXMEM">  2800</i>
   <i type="int" name="TELESCOPE">     0</i>
   <i type="int" name="TAUPAR">     1</i>
   <i type="int" name="OMEGAPAR">    -1</i>
   <i name="LAMBDA">      1.00000000</i>
  </separator>
  <separator name="External order field" >
   <i name="OFIELD_KAPPA">      0.00000000</i>
   <v name="OFIELD_K">      0.00000000      0.00000000      0.00000000</v>
   <i name="OFIELD_Q6_NEAR">      0.00000000</i>
   <i name="OFIELD_Q6_FAR">      0.00000000</i>
   <i name="OFIELD_A">      0.00000000</i>
  </separator>
  <separator name="solvation model" >
   <i type="logical" name="LSOL"> F  </i>
  </separator>
 </parameters>
 <atominfo>
  <atoms>     114 </atoms>
  <types>       4 </types>
  <array name="atoms" >
   <dimension dim="1">ion</dimension>
   <field type="string">element</field>
   <field type="int">atomtype</field>
   <set>
    <rc><c>H </c><c>   1</c></rc>
    <rc><c>H </c><c>   1</c></rc>
    <rc><c>H </c><c>   1</c></rc>
    <rc><c>H </c><c>   1</c></rc>
    <rc><c>H </c><c>   1</c></rc>
    <rc><c>H </c><c>   1</c></rc>
    <rc><c>H </c><c>   1</c></rc>
    <rc><c>H </c><c>   1</c></rc>
    <rc><c>H </c><c>   1</c></rc>
    <rc><c>H </c><c>   1</c></rc>
    <rc><c>H </c><c>   1</c></rc>
    <rc><c>H </c><c>   1</c></rc>
    <rc><c>H </c><c>   1</c></rc>
    <rc><c>H </c><c>   1</c></rc>
    <rc><c>H </c><c>   1</c></rc>
    <rc><c>H </c><c>   1</c></rc>
    <rc><c>H </c><c>   1</c></rc>
    <rc><c>H </c><c>   1</c></rc>
    <rc><c>H </c><c>   1</c></rc>
    <rc><c>H </c><c>   1</c></rc>
    <rc><c>H </c><c>   1</c></rc>
    <rc><c>H </c><c>   1</c></rc>
    <rc><c>H </c><c>   1</c></rc>
    <rc><c>H </c><c>   1</c></rc>
    <rc><c>H </c><c>   1</c></rc>
    <rc><c>H </c><c>   1</c></rc>
    <rc><c>H </c><c>   1</c></rc>
    <rc><c>H </c><c>   1</c></rc>
    <rc><c>H </c><c>   1</c></rc>
    <rc><c>H </c><c>   1</c></rc>
    <rc><c>C </c><c>   2</c></rc>
    <rc><c>C </c><c>   2</c></rc>
    <rc><c>C </c><c>   2</c></rc>
    <rc><c>C </c><c>   2</c></rc>
    <rc><c>C </c><c>   2</c></rc>
    <rc><c>C </c><c>   2</c></rc>
    <rc><c>C </c><c>   2</c></rc>
    <rc><c>C </c><c>   2</c></rc>
    <rc><c>C </c><c>   2</c></rc>
    <rc><c>C </c><c>   2</c></rc>
    <rc><c>C </c><c>   2</c></rc>
    <rc><c>C </c><c>   2</c></rc>
    <rc><c>C </c><c>   2</c></rc>
    <rc><c>C </c><c>   2</c></rc>
    <rc><c>C </c><c>   2</c></rc>
    <rc><c>C </c><c>   2</c></rc>
    <rc><c>C </c><c>   2</c></rc>
    <rc><c>C </c><c>   2</c></rc>
    <rc><c>C </c><c>   2</c></rc>
    <rc><c>C </c><c>   2</c></rc>
    <rc><c>C </c><c>   2</c></rc>
    <rc><c>C </c><c>   2</c></rc>
    <rc><c>C </c><c>   2</c></rc>
    <rc><c>C </c><c>   2</c></rc>
    <rc><c>C </c><c>   2</c></rc>
    <rc><c>C </c><c>   2</c></rc>
    <rc><c>C </c><c>   2</c></rc>
    <rc><c>C </c><c>   2</c></rc>
    <rc><c>C </c><c>   2</c></rc>
    <rc><c>C </c><c>   2</c></rc>
    <rc><c>C </c><c>   2</c></rc>
    <rc><c>C </c><c>   2</c></rc>
    <rc><c>C </c><c>   2</c></rc>
    <rc><c>C </c><c>   2</c></rc>
    <rc><c>C </c><c>   2</c></rc>
    <rc><c>C </c><c>   2</c></rc>
    <rc><c>C </c><c>   2</c></rc>
    <rc><c>C </c><c>   2</c></rc>
    <rc><c>C </c><c>   2</c></rc>
    <rc><c>C </c><c>   2</c></rc>
    <rc><c>C </c><c>   2</c></rc>
    <rc><c>C </c><c>   2</c></rc>
    <rc><c>C </c><c>   2</c></rc>
    <rc><c>C </c><c>   2</c></rc>
    <rc><c>C </c><c>   2</c></rc>
    <rc><c>C </c><c>   2</c></rc>
    <rc><c>C </c><c>   2</c></rc>
    <rc><c>C </c><c>   2</c></rc>
    <rc><c>C </c><c>   2</c></rc>
    <rc><c>C </c><c>   2</c></rc>
    <rc><c>C </c><c>   2</c></rc>
    <rc><c>C </c><c>   2</c></rc>
    <rc><c>C </c><c>   2</c></rc>
    <rc><c>C </c><c>   2</c></rc>
    <rc><c>C </c><c>   2</c></rc>
    <rc><c>C </c><c>   2</c></rc>
    <rc><c>C </c><c>   2</c></rc>
    <rc><c>C </c><c>   2</c></rc>
    <rc><c>C </c><c>   2</c></rc>
    <rc><c>C </c><c>   2</c></rc>
    <rc><c>N </c><c>   3</c></rc>
    <rc><c>N </c><c>   3</c></rc>
    <rc><c>N </c><c>   3</c></rc>
    <rc><c>N </c><c>   3</c></rc>
    <rc><c>N </c><c>   3</c></rc>
    <rc><c>N </c><c>   3</c></rc>
    <rc><c>N </c><c>   3</c></rc>
    <rc><c>N </c><c>   3</c></rc>
    <rc><c>N </c><c>   3</c></rc>
    <rc><c>N </c><c>   3</c></rc>
    <rc><c>N </c><c>   3</c></rc>
    <rc><c>N </c><c>   3</c></rc>
    <rc><c>O </c><c>   4</c></rc>
    <rc><c>O </c><c>   4</c></rc>
    <rc><c>O </c><c>   4</c></rc>
    <rc><c>O </c><c>   4</c></rc>
    <rc><c>O </c><c>   4</c></rc>
    <rc><c>O </c><c>   4</c></rc>
    <rc><c>O </c><c>   4</c></rc>
    <rc><c>O </c><c>   4</c></rc>
    <rc><c>O </c><c>   4</c></rc>
    <rc><c>O </c><c>   4</c></rc>
    <rc><c>O </c><c>   4</c></rc>
    <rc><c>O </c><c>   4</c></rc>
   </set>
  </array>
  <array name="atomtypes" >
   <dimension dim="1">type</dimension>
   <field type="int">atomspertype</field>
   <field type="string">element</field>
   <field>mass</field>
   <field>valence</field>
   <field type="string">pseudopotential</field>
   <set>
    <rc><c>  30</c><c>H </c><c>      1.00000000</c><c>      1.00000000</c><c>  PAW_PBE H 15Jun2001                   </c></rc>
    <rc><c>  60</c><c>C </c><c>     12.01100000</c><c>      4.00000000</c><c>  PAW_PBE C 08Apr2002                   </c></rc>
    <rc><c>  12</c><c>N </c><c>     14.00100000</c><c>      5.00000000</c><c>  PAW_PBE N 08Apr2002                   </c></rc>
    <rc><c>  12</c><c>O </c><c>     16.00000000</c><c>      6.00000000</c><c>  PAW_PBE O 08Apr2002                   </c></rc>
   </set>
  </array>
 </atominfo>
 <structure name="initialpos" >
  <crystal>
   <varray name="basis" >
    <v>      29.22668170      -0.02538207       0.00000000 </v>
    <v>     -14.63513782      25.35887913       0.00000000 </v>
    <v>       0.00000000       0.00000000      20.00000000 </v>
   </varray>
   <i name="volume">  14815.68837272 </i>
   <varray name="rec_basis" >
    <v>       0.03423247       0.01975627       0.00000000 </v>
    <v>       0.00003426       0.03945369       0.00000000 </v>
    <v>       0.00000000       0.00000000       0.05000000 </v>
   </varray>
  </crystal>
  <varray name="positions" >
   <v>       0.11822069       0.63183348       0.53140250 </v>
   <v>       0.21627771       0.68036045       0.53008314 </v>
   <v>       0.11709687       0.48993768       0.46992429 </v>
   <v>       0.21597238       0.53866318       0.47279592 </v>
   <v>       0.31941870       0.53837504       0.53153537 </v>
   <v>       0.36774765       0.48883741       0.53185543 </v>
   <v>       0.46124370       0.67966025       0.47320440 </v>
   <v>       0.50985409       0.62957335       0.46969056 </v>
   <v>       0.46162024       0.78339013       0.53048865 </v>
   <v>       0.51124335       0.88121930       0.53123728 </v>
   <v>       0.37058150       0.88230604       0.46788440 </v>
   <v>       0.32039349       0.78363232       0.47092587 </v>
   <v>       0.87853106       0.36681674       0.46398106 </v>
   <v>       0.78047834       0.31926844       0.46465760 </v>
   <v>       0.88126613       0.50904283       0.52768814 </v>
   <v>       0.78243507       0.46134999       0.52417845 </v>
   <v>       0.67992726       0.46320837       0.46476532 </v>
   <v>       0.63270800       0.51384659       0.46403873 </v>
   <v>       0.53700438       0.32303929       0.52306834 </v>
   <v>       0.48951007       0.37423702       0.52616107 </v>
   <v>       0.53522674       0.21818969       0.46475267 </v>
   <v>       0.48499423       0.12035604       0.46409622 </v>
   <v>       0.62516981       0.11814229       0.52700777 </v>
   <v>       0.67599006       0.21680760       0.52375179 </v>
   <v>       0.54158406       0.07325579       0.35534071 </v>
   <v>       0.92469691       0.47159550       0.35753111 </v>
   <v>       0.52982530       0.45780146       0.35674263 </v>
   <v>       0.45295265       0.92601801       0.63848013 </v>
   <v>       0.07474144       0.52852144       0.63821829 </v>
   <v>       0.47103359       0.54674037       0.63912264 </v>
   <v>       0.46649484       0.48982262       0.54911867 </v>
   <v>       0.28059250       0.64151137       0.50207679 </v>
   <v>       0.35851459       0.71914651       0.50177458 </v>
   <v>       0.35832870       0.64139707       0.50306473 </v>
   <v>       0.38787086       0.77750301       0.50137101 </v>
   <v>       0.36218601       0.80555195       0.48397687 </v>
   <v>       0.38997853       0.86035045       0.48283626 </v>
   <v>       0.44368100       0.88834850       0.50109896 </v>
   <v>       0.46930518       0.86022773       0.51859141 </v>
   <v>       0.44178609       0.80537699       0.51798981 </v>
   <v>       0.22212746       0.61239792       0.50203394 </v>
   <v>       0.19423974       0.63843621       0.51817404 </v>
   <v>       0.13928513       0.61095670       0.51905701 </v>
   <v>       0.11111555       0.55710772       0.50217419 </v>
   <v>       0.13911653       0.53138415       0.48442098 </v>
   <v>       0.19401703       0.55851895       0.48543430 </v>
   <v>       0.38744521       0.61213825       0.50300341 </v>
   <v>       0.36134270       0.55824344       0.51921865 </v>
   <v>       0.38874032       0.53077114       0.51957995 </v>
   <v>       0.44260644       0.55642853       0.50225875 </v>
   <v>       0.46840310       0.61013618       0.48450297 </v>
   <v>       0.44132740       0.63787492       0.48590826 </v>
   <v>       0.71700071       0.35897541       0.49336115 </v>
   <v>       0.63858683       0.28184426       0.49331920 </v>
   <v>       0.63976076       0.36007683       0.49319229 </v>
   <v>       0.60877965       0.22349741       0.49358600 </v>
   <v>       0.63416325       0.19512872       0.51083946 </v>
   <v>       0.60602498       0.14034505       0.51209024 </v>
   <v>       0.55227292       0.11266477       0.49402138 </v>
   <v>       0.52695610       0.14109624       0.47659878 </v>
   <v>       0.55482925       0.19595994       0.47714717 </v>
   <v>       0.77545706       0.38750248       0.49370121 </v>
   <v>       0.80288127       0.36106988       0.47714935 </v>
   <v>       0.85784083       0.38800265       0.47663714 </v>
   <v>       0.88645797       0.44167033       0.49430845 </v>
   <v>       0.85890587       0.46776144       0.51253109 </v>
   <v>       0.80402486       0.44119400       0.51115870 </v>
   <v>       0.61127292       0.38994864       0.49326517 </v>
   <v>       0.63800327       0.44383422       0.47695683 </v>
   <v>       0.61123423       0.47192279       0.47637027 </v>
   <v>       0.55737857       0.44686997       0.49357425 </v>
   <v>       0.53095174       0.39316174       0.51141093 </v>
   <v>       0.55739923       0.36481138       0.51024141 </v>
   <v>       0.48556575       0.02219446       0.44674607 </v>
   <v>       0.52362732       0.05438727       0.49509504 </v>
   <v>       0.46988590       0.04373082       0.38758455 </v>
   <v>       0.97709820       0.46593949       0.44675568 </v>
   <v>       0.94483823       0.47119099       0.49558566 </v>
   <v>       0.95551195       0.42985591       0.38653441 </v>
   <v>       0.53428207       0.51424623       0.44705511 </v>
   <v>       0.52806047       0.47582401       0.49494819 </v>
   <v>       0.57138162       0.52982809       0.38775704 </v>
   <v>       0.47203933       0.94661450       0.50022417 </v>
   <v>       0.50995527       0.97879960       0.54871321 </v>
   <v>       0.52535916       0.95734626       0.60824580 </v>
   <v>       0.05273340       0.52714014       0.50119188 </v>
   <v>       0.02048574       0.53237545       0.55004588 </v>
   <v>       0.04202674       0.56872257       0.61005392 </v>
   <v>       0.47246560       0.52800466       0.50100630 </v>
   <v>       0.42975665       0.47449384       0.60879078 </v>
   <v>       0.50715667       0.53968343       0.45069681 </v>
   <v>       0.30541056       0.69453109       0.50099010 </v>
   <v>       0.38681255       0.69440749       0.50284735 </v>
   <v>       0.30519670       0.61310215       0.50311831 </v>
   <v>       0.69167161       0.30593072       0.49332792 </v>
   <v>       0.61074879       0.30708404       0.49323290 </v>
   <v>       0.69291098       0.38788778       0.49324545 </v>
   <v>       0.46042624       0.96964105       0.44993779 </v>
   <v>       0.02976479       0.49311675       0.45028707 </v>
   <v>       0.53522405       0.03135100       0.54536051 </v>
   <v>       0.96782684       0.50508114       0.54658249 </v>
   <v>       0.49344825       0.46422194       0.54528965 </v>
   <v>       0.39310112       0.43019077       0.61721109 </v>
   <v>       0.42572160       0.03691292       0.38043897 </v>
   <v>       0.50842903       0.07098147       0.34143831 </v>
   <v>       0.96297682       0.39321851       0.37717055 </v>
   <v>       0.92747279       0.44141714       0.34196703 </v>
   <v>       0.60829082       0.57407781       0.37985172 </v>
   <v>       0.56041515       0.49096033       0.34233798 </v>
   <v>       0.56976205       0.96511136       0.61661002 </v>
   <v>       0.48624419       0.92906676       0.65334425 </v>
   <v>       0.03356726       0.60468387       0.61973922 </v>
   <v>       0.07124373       0.55824126       0.65399327 </v>
   <v>       0.44073935       0.51352033       0.65396660 </v>
  </varray>
 </structure>
 <calculation>
  <scstep>
   <time name="dav">  679.38  687.35</time>
   <time name="total">  679.63  687.61</time>
   <energy>
    <i name="alphaZ">     49.97389004 </i>
    <i name="ewald">  50541.54953877 </i>
    <i name="hartreedc"> -64960.00835889 </i>
    <i name="XCdc">   1488.00350348 </i>
    <i name="pawpsdc">  37407.51075135 </i>
    <i name="pawaedc"> -37489.37027320 </i>
    <i name="eentropy">     -0.00000000 </i>
    <i name="bandstr">  -5431.41323761 </i>
    <i name="atom">  17566.19360534 </i>
    <i name="e_fr_energy">   -827.56058072 </i>
    <i name="e_wo_entrp">   -827.56058072 </i>
    <i name="e_0_energy">   -827.56058072 </i>
   </energy>
  </scstep>
  <scstep>
   <time name="dav">  745.19  753.65</time>
   <time name="total">  745.19  753.65</time>
   <energy>
    <i name="e_fr_energy">   -828.10965205 </i>
    <i name="e_wo_entrp">   -828.10965205 </i>
    <i name="e_0_energy">   -828.10965205 </i>
   </energy>
  </scstep>
  <scstep>
   <time name="dav">  848.70  858.42</time>
   <time name="total">  848.70  858.43</time>
   <energy>
    <i name="e_fr_energy">   -828.12648616 </i>
    <i name="e_wo_entrp">   -828.12648616 </i>
    <i name="e_0_energy">   -828.12648616 </i>
   </energy>
  </scstep>
  <scstep>
   <time name="dav">  746.81  755.42</time>
   <time name="total">  746.82  755.42</time>
   <energy>
    <i name="e_fr_energy">   -828.12680713 </i>
    <i name="e_wo_entrp">   -828.12680713 </i>
    <i name="e_0_energy">   -828.12680713 </i>
   </energy>
  </scstep>
  <scstep>
   <time name="dav">  786.29  795.48</time>
   <time name="total">  786.29  795.48</time>
   <energy>
    <i name="e_fr_energy">   -828.12682540 </i>
    <i name="e_wo_entrp">   -828.12682540 </i>
    <i name="e_0_energy">   -828.12682540 </i>
   </energy>
  </scstep>
  <scstep>
   <time name="dav">  585.57  592.67</time>
   <time name="total">  585.57  592.67</time>
   <energy>
    <i name="alphaZ">     49.97389004 </i>
    <i name="ewald">  50541.54953877 </i>
    <i name="hartreedc"> -64960.00835889 </i>
    <i name="XCdc">   1488.00350348 </i>
    <i name="pawpsdc">  37407.51075135 </i>
    <i name="pawaedc"> -37489.37027320 </i>
    <i name="eentropy">     -0.00000000 </i>
    <i name="bandstr">  -5431.97948257 </i>
    <i name="atom">  17566.19360534 </i>
    <i name="e_fr_energy">   -828.12682568 </i>
    <i name="e_wo_entrp">   -828.12682568 </i>
    <i name="e_0_energy">   -828.12682568 </i>
   </energy>
  </scstep>
  <structure>
   <crystal>
    <varray name="basis" >
     <v>      29.22668170      -0.02538207       0.00000000 </v>
     <v>     -14.63513782      25.35887913       0.00000000 </v>
     <v>       0.00000000       0.00000000      20.00000000 </v>
    </varray>
    <i name="volume">  14815.68837272 </i>
    <varray name="rec_basis" >
     <v>       0.03423247       0.01975627       0.00000000 </v>
     <v>       0.00003426       0.03945369       0.00000000 </v>
     <v>       0.00000000       0.00000000       0.05000000 </v>
    </varray>
   </crystal>
   <varray name="positions" >
    <v>       0.11822069       0.63183348       0.53140250 </v>
    <v>       0.21627771       0.68036045       0.53008314 </v>
    <v>       0.11709687       0.48993768       0.46992429 </v>
    <v>       0.21597238       0.53866318       0.47279592 </v>
    <v>       0.31941870       0.53837504       0.53153537 </v>
    <v>       0.36774765       0.48883741       0.53185543 </v>
    <v>       0.46124370       0.67966025       0.47320440 </v>
    <v>       0.50985409       0.62957335       0.46969056 </v>
    <v>       0.46162024       0.78339013       0.53048865 </v>
    <v>       0.51124335       0.88121930       0.53123728 </v>
    <v>       0.37058150       0.88230604       0.46788440 </v>
    <v>       0.32039349       0.78363232       0.47092587 </v>
    <v>       0.87853106       0.36681674       0.46398106 </v>
    <v>       0.78047834       0.31926844       0.46465760 </v>
    <v>       0.88126613       0.50904283       0.52768814 </v>
    <v>       0.78243507       0.46134999       0.52417845 </v>
    <v>       0.67992726       0.46320837       0.46476532 </v>
    <v>       0.63270800       0.51384659       0.46403873 </v>
    <v>       0.53700438       0.32303929       0.52306834 </v>
    <v>       0.48951007       0.37423702       0.52616107 </v>
    <v>       0.53522674       0.21818969       0.46475267 </v>
    <v>       0.48499423       0.12035604       0.46409622 </v>
    <v>       0.62516981       0.11814229       0.52700777 </v>
    <v>       0.67599006       0.21680760       0.52375179 </v>
    <v>       0.54158406       0.07325579       0.35534071 </v>
    <v>       0.92469691       0.47159550       0.35753111 </v>
    <v>       0.52982530       0.45780146       0.35674263 </v>
    <v>       0.45295265       0.92601801       0.63848013 </v>
    <v>       0.07474144       0.52852144       0.63821829 </v>
    <v>       0.47103359       0.54674037       0.63912264 </v>
    <v>       0.46649484       0.48982262       0.54911867 </v>
    <v>       0.28059250       0.64151137       0.50207679 </v>
    <v>       0.35851459       0.71914651       0.50177458 </v>
    <v>       0.35832870       0.64139707       0.50306473 </v>
    <v>       0.38787086       0.77750301       0.50137101 </v>
    <v>       0.36218601       0.80555195       0.48397687 </v>
    <v>       0.38997853       0.86035045       0.48283626 </v>
    <v>       0.44368100       0.88834850       0.50109896 </v>
    <v>       0.46930518       0.86022773       0.51859141 </v>
    <v>       0.44178609       0.80537699       0.51798981 </v>
    <v>       0.22212746       0.61239792       0.50203394 </v>
    <v>       0.19423974       0.63843621       0.51817404 </v>
    <v>       0.13928513       0.61095670       0.51905701 </v>
    <v>       0.11111555       0.55710772       0.50217419 </v>
    <v>       0.13911653       0.53138415       0.48442098 </v>
    <v>       0.19401703       0.55851895       0.48543430 </v>
    <v>       0.38744521       0.61213825       0.50300341 </v>
    <v>       0.36134270       0.55824344       0.51921865 </v>
    <v>       0.38874032       0.53077114       0.51957995 </v>
    <v>       0.44260644       0.55642853       0.50225875 </v>
    <v>       0.46840310       0.61013618       0.48450297 </v>
    <v>       0.44132740       0.63787492       0.48590826 </v>
    <v>       0.71700071       0.35897541       0.49336115 </v>
    <v>       0.63858683       0.28184426       0.49331920 </v>
    <v>       0.63976076       0.36007683       0.49319229 </v>
    <v>       0.60877965       0.22349741       0.49358600 </v>
    <v>       0.63416325       0.19512872       0.51083946 </v>
    <v>       0.60602498       0.14034505       0.51209024 </v>
    <v>       0.55227292       0.11266477       0.49402138 </v>
    <v>       0.52695610       0.14109624       0.47659878 </v>
    <v>       0.55482925       0.19595994       0.47714717 </v>
    <v>       0.77545706       0.38750248       0.49370121 </v>
    <v>       0.80288127       0.36106988       0.47714935 </v>
    <v>       0.85784083       0.38800265       0.47663714 </v>
    <v>       0.88645797       0.44167033       0.49430845 </v>
    <v>       0.85890587       0.46776144       0.51253109 </v>
    <v>       0.80402486       0.44119400       0.51115870 </v>
    <v>       0.61127292       0.38994864       0.49326517 </v>
    <v>       0.63800327       0.44383422       0.47695683 </v>
    <v>       0.61123423       0.47192279       0.47637027 </v>
    <v>       0.55737857       0.44686997       0.49357425 </v>
    <v>       0.53095174       0.39316174       0.51141093 </v>
    <v>       0.55739923       0.36481138       0.51024141 </v>
    <v>       0.48556575       0.02219446       0.44674607 </v>
    <v>       0.52362732       0.05438727       0.49509504 </v>
    <v>       0.46988590       0.04373082       0.38758455 </v>
    <v>       0.97709820       0.46593949       0.44675568 </v>
    <v>       0.94483823       0.47119099       0.49558566 </v>
    <v>       0.95551195       0.42985591       0.38653441 </v>
    <v>       0.53428207       0.51424623       0.44705511 </v>
    <v>       0.52806047       0.47582401       0.49494819 </v>
    <v>       0.57138162       0.52982809       0.38775704 </v>
    <v>       0.47203933       0.94661450       0.50022417 </v>
    <v>       0.50995527       0.97879960       0.54871321 </v>
    <v>       0.52535916       0.95734626       0.60824580 </v>
    <v>       0.05273340       0.52714014       0.50119188 </v>
    <v>       0.02048574       0.53237545       0.55004588 </v>
    <v>       0.04202674       0.56872257       0.61005392 </v>
    <v>       0.47246560       0.52800466       0.50100630 </v>
    <v>       0.42975665       0.47449384       0.60879078 </v>
    <v>       0.50715667       0.53968343       0.45069681 </v>
    <v>       0.30541056       0.69453109       0.50099010 </v>
    <v>       0.38681255       0.69440749       0.50284735 </v>
    <v>       0.30519670       0.61310215       0.50311831 </v>
    <v>       0.69167161       0.30593072       0.49332792 </v>
    <v>       0.61074879       0.30708404       0.49323290 </v>
    <v>       0.69291098       0.38788778       0.49324545 </v>
    <v>       0.46042624       0.96964105       0.44993779 </v>
    <v>       0.02976479       0.49311675       0.45028707 </v>
    <v>       0.53522405       0.03135100       0.54536051 </v>
    <v>       0.96782684       0.50508114       0.54658249 </v>
    <v>       0.49344825       0.46422194       0.54528965 </v>
    <v>       0.39310112       0.43019077       0.61721109 </v>
    <v>       0.42572160       0.03691292       0.38043897 </v>
    <v>       0.50842903       0.07098147       0.34143831 </v>
    <v>       0.96297682       0.39321851       0.37717055 </v>
    <v>       0.92747279       0.44141714       0.34196703 </v>
    <v>       0.60829082       0.57407781       0.37985172 </v>
    <v>       0.56041515       0.49096033       0.34233798 </v>
    <v>       0.56976205       0.96511136       0.61661002 </v>
    <v>       0.48624419       0.92906676       0.65334425 </v>
    <v>       0.03356726       0.60468387       0.61973922 </v>
    <v>       0.07124373       0.55824126       0.65399327 </v>
    <v>       0.44073935       0.51352033       0.65396660 </v>
   </varray>
  </structure>
  <varray name="forces" >
   <v>       0.00106649      -0.00136572      -0.00093337 </v>
   <v>      -0.00002455      -0.00000716      -0.00065063 </v>
   <v>      -0.00012837      -0.00014009       0.00013819 </v>
   <v>      -0.00066345      -0.00030728       0.00007672 </v>
   <v>       0.00136727      -0.00021289      -0.00380612 </v>
   <v>      -0.00023770       0.00028167      -0.00052606 </v>
   <v>      -0.00103120      -0.00179658      -0.00041970 </v>
   <v>       0.00050061      -0.00008035       0.00167180 </v>
   <v>      -0.00038809       0.00024503      -0.00139894 </v>
   <v>       0.00021821       0.00017241      -0.00229866 </v>
   <v>      -0.00055354       0.00049070      -0.00015546 </v>
   <v>      -0.00026537      -0.00061263       0.00128212 </v>
   <v>      -0.00086362       0.00035045       0.00006850 </v>
   <v>      -0.00052790       0.00111310      -0.00064595 </v>
   <v>       0.00023259       0.00061378      -0.00043881 </v>
   <v>      -0.00038136       0.00013306      -0.00057593 </v>
   <v>      -0.00007655      -0.00028705       0.00147588 </v>
   <v>      -0.00014468      -0.00208483       0.00245527 </v>
   <v>      -0.00024193       0.00011272      -0.00154395 </v>
   <v>       0.00193920       0.00012595      -0.00119971 </v>
   <v>      -0.00027617       0.00013973       0.00194186 </v>
   <v>      -0.00025962       0.00013252       0.00237787 </v>
   <v>       0.00057158      -0.00002081       0.00014628 </v>
   <v>       0.00025185       0.00087307      -0.00035016 </v>
   <v>      -0.00078967      -0.00011879      -0.00026745 </v>
   <v>      -0.00087188      -0.00007874      -0.00029485 </v>
   <v>       0.00200163       0.00294123       0.00205597 </v>
   <v>       0.00087482       0.00099668       0.00160930 </v>
   <v>      -0.00017610       0.00425473       0.00049819 </v>
   <v>      -0.00094006       0.00155641      -0.00085045 </v>
   <v>      -0.00284997      -0.00177208       0.00331488 </v>
   <v>      -0.00016318      -0.00133422       0.00008494 </v>
   <v>      -0.00262948      -0.00020130       0.00026461 </v>
   <v>       0.00005133       0.00003402      -0.00053642 </v>
   <v>      -0.00003818       0.00140709      -0.00013391 </v>
   <v>      -0.00033913      -0.00057107       0.00072203 </v>
   <v>       0.00161958      -0.00087493       0.00021091 </v>
   <v>      -0.00045846       0.00059093      -0.00111395 </v>
   <v>       0.00045822      -0.00050247      -0.00175846 </v>
   <v>       0.00044005      -0.00087126      -0.00047094 </v>
   <v>       0.00033114       0.00109927      -0.00020631 </v>
   <v>      -0.00040339      -0.00074759      -0.00080948 </v>
   <v>      -0.00101645       0.00063301      -0.00045028 </v>
   <v>       0.00028626       0.00081330       0.00000432 </v>
   <v>       0.00055836       0.00012311      -0.00061921 </v>
   <v>      -0.00043535      -0.00061952      -0.00030900 </v>
   <v>       0.00233551      -0.00146230      -0.00032730 </v>
   <v>      -0.00186320      -0.00041425      -0.00090754 </v>
   <v>      -0.00199111       0.00118031      -0.00115239 </v>
   <v>       0.00218770      -0.00277655       0.00051174 </v>
   <v>      -0.00111501       0.00018986       0.00039656 </v>
   <v>      -0.00065452       0.00112691      -0.00000620 </v>
   <v>      -0.00103929       0.00114225      -0.00001487 </v>
   <v>      -0.00165516       0.00058363       0.00075130 </v>
   <v>       0.00157022      -0.00037045      -0.00010847 </v>
   <v>       0.00081574      -0.00049285       0.00113862 </v>
   <v>      -0.00079431       0.00066140      -0.00042561 </v>
   <v>      -0.00128687      -0.00136207      -0.00071709 </v>
   <v>       0.00019044      -0.00011085       0.00057728 </v>
   <v>       0.00127515      -0.00114307       0.00124682 </v>
   <v>      -0.00028201      -0.00098075       0.00124530 </v>
   <v>      -0.00001621       0.00041010       0.00033435 </v>
   <v>       0.00148118       0.00006015      -0.00088474 </v>
   <v>      -0.00153854      -0.00146692      -0.00052448 </v>
   <v>      -0.00045126       0.00140744       0.00082078 </v>
   <v>       0.00263029      -0.00158022      -0.00104273 </v>
   <v>      -0.00066637      -0.00214133      -0.00097883 </v>
   <v>       0.00159976       0.00066575      -0.00103365 </v>
   <v>       0.00001212       0.00092657       0.00021918 </v>
   <v>      -0.00154239       0.00082650       0.00012019 </v>
   <v>       0.00248422       0.00037175       0.00007016 </v>
   <v>      -0.00133308      -0.00239768      -0.00014108 </v>
   <v>      -0.00197563      -0.00050159      -0.00064541 </v>
   <v>       0.00125630       0.00049797       0.00172515 </v>
   <v>      -0.00036471       0.00287182      -0.00163009 </v>
   <v>      -0.00729782      -0.00193862       0.00099225 </v>
   <v>      -0.00126750      -0.00129443      -0.00055289 </v>
   <v>      -0.00030027       0.00011808       0.00090977 </v>
   <v>       0.00177500      -0.00129736      -0.00104104 </v>
   <v>       0.00001270      -0.00248850       0.00313777 </v>
   <v>       0.00025062       0.00054898      -0.00186484 </v>
   <v>      -0.00141208      -0.00548244       0.00016403 </v>
   <v>      -0.00080204      -0.00181827      -0.00173992 </v>
   <v>       0.00206870       0.00141411       0.00088989 </v>
   <v>       0.01030411      -0.00061875       0.00162072 </v>
   <v>      -0.00054682      -0.00007555       0.00053943 </v>
   <v>       0.00037620       0.00121663       0.00231977 </v>
   <v>       0.00380849      -0.00473333      -0.00219256 </v>
   <v>       0.00087334       0.00177166      -0.00257130 </v>
   <v>       0.00336412       0.00802873      -0.00205889 </v>
   <v>      -0.00015945       0.00055117       0.00047814 </v>
   <v>       0.00193459      -0.00059019      -0.00075758 </v>
   <v>       0.00026894      -0.00275810      -0.00005786 </v>
   <v>      -0.00108458       0.00196164      -0.00021950 </v>
   <v>       0.00179116      -0.00104952       0.00086839 </v>
   <v>      -0.00011406       0.00020631      -0.00016341 </v>
   <v>      -0.00149411      -0.00030055      -0.00065575 </v>
   <v>      -0.00067016      -0.00096851       0.00002249 </v>
   <v>       0.00043184       0.00018132      -0.00157222 </v>
   <v>       0.00002137      -0.00194378      -0.00081196 </v>
   <v>       0.00196714       0.00030956       0.00025292 </v>
   <v>      -0.00086967      -0.00075273       0.00165083 </v>
   <v>      -0.00406110      -0.00381302       0.00253191 </v>
   <v>       0.00335857       0.00163974       0.00323860 </v>
   <v>      -0.00080262      -0.00176730      -0.00000928 </v>
   <v>      -0.00228243       0.00369557       0.00064890 </v>
   <v>       0.00190667       0.00027029       0.00107531 </v>
   <v>       0.00449810       0.00444147       0.00035799 </v>
   <v>      -0.00121481       0.00328857       0.00459653 </v>
   <v>      -0.00567381      -0.00232311      -0.00120293 </v>
   <v>      -0.00025191       0.00177792      -0.00265263 </v>
   <v>      -0.00324013       0.00422815      -0.00181450 </v>
   <v>      -0.00030471      -0.00148402       0.00033861 </v>
   <v>      -0.00002430       0.00150005      -0.00094752 </v>
  </varray>
  <varray name="stress" >
   <v>       0.00104999      -0.00106200      -0.00003696 </v>
   <v>      -0.00106200       0.00336874       0.00211121 </v>
   <v>      -0.00003696       0.00211120      -0.17510732 </v>
  </varray>
  <energy>
   <i name="e_fr_energy">   -830.57975901 </i>
   <i name="e_wo_entrp">   -830.57975901 </i>
   <i name="e_0_energy">     -0.00000000 </i>
  </energy>
  <time name="totalsc"> 5181.38 5243.76</time>
  <eigenvalues>
   <array>
    <dimension dim="1">band</dimension>
    <dimension dim="2">kpoint</dimension>
    <dimension dim="3">spin</dimension>
    <field>eigene</field>
    <field>occ</field>
    <set>
     <set comment="spin 1">
      <set comment="kpoint 1">
       <r>  -27.8421    1.0000 </r>
       <r>  -27.8337    1.0000 </r>
       <r>  -27.8286    1.0000 </r>
       <r>  -27.8258    1.0000 </r>
       <r>  -27.8243    1.0000 </r>
       <r>  -27.8170    1.0000 </r>
       <r>  -25.7819    1.0000 </r>
       <r>  -25.7751    1.0000 </r>
       <r>  -25.7694    1.0000 </r>
       <r>  -25.7648    1.0000 </r>
       <r>  -25.7640    1.0000 </r>
       <r>  -25.7560    1.0000 </r>
       <r>  -25.6861    1.0000 </r>
       <r>  -25.6757    1.0000 </r>
       <r>  -25.2010    1.0000 </r>
       <r>  -25.1997    1.0000 </r>
       <r>  -25.1975    1.0000 </r>
       <r>  -23.3639    1.0000 </r>
       <r>  -23.3624    1.0000 </r>
       <r>  -23.3612    1.0000 </r>
       <r>  -22.7673    1.0000 </r>
       <r>  -22.7654    1.0000 </r>
       <r>  -22.7590    1.0000 </r>
       <r>  -22.7571    1.0000 </r>
       <r>  -21.8364    1.0000 </r>
       <r>  -21.7779    1.0000 </r>
       <r>  -21.7759    1.0000 </r>
       <r>  -21.7193    1.0000 </r>
       <r>  -21.6509    1.0000 </r>
       <r>  -21.6479    1.0000 </r>
       <r>  -20.6248    1.0000 </r>
       <r>  -20.6238    1.0000 </r>
       <r>  -20.6196    1.0000 </r>
       <r>  -19.6763    1.0000 </r>
       <r>  -19.6742    1.0000 </r>
       <r>  -19.5308    1.0000 </r>
       <r>  -19.0193    1.0000 </r>
       <r>  -19.0184    1.0000 </r>
       <r>  -18.8596    1.0000 </r>
       <r>  -18.8485    1.0000 </r>
       <r>  -18.8458    1.0000 </r>
       <r>  -18.8266    1.0000 </r>
       <r>  -18.7629    1.0000 </r>
       <r>  -18.7605    1.0000 </r>
       <r>  -18.6778    1.0000 </r>
       <r>  -17.9016    1.0000 </r>
       <r>  -17.8991    1.0000 </r>
       <r>  -17.8573    1.0000 </r>
       <r>  -17.6783    1.0000 </r>
       <r>  -17.6775    1.0000 </r>
       <r>  -17.1548    1.0000 </r>
       <r>  -16.9605    1.0000 </r>
       <r>  -16.9596    1.0000 </r>
       <r>  -16.2486    1.0000 </r>
       <r>  -16.2473    1.0000 </r>
       <r>  -15.9598    1.0000 </r>
       <r>  -15.7424    1.0000 </r>
       <r>  -15.7372    1.0000 </r>
       <r>  -15.6586    1.0000 </r>
       <r>  -15.6037    1.0000 </r>
       <r>  -15.5232    1.0000 </r>
       <r>  -15.5182    1.0000 </r>
       <r>  -15.4704    1.0000 </r>
       <r>  -15.3719    1.0000 </r>
       <r>  -15.3562    1.0000 </r>
       <r>  -15.3541    1.0000 </r>
       <r>  -15.2347    1.0000 </r>
       <r>  -15.1663    1.0000 </r>
       <r>  -15.1623    1.0000 </r>
       <r>  -14.7201    1.0000 </r>
       <r>  -14.7183    1.0000 </r>
       <r>  -14.6082    1.0000 </r>
       <r>  -14.6048    1.0000 </r>
       <r>  -14.0975    1.0000 </r>
       <r>  -14.0251    1.0000 </r>
       <r>  -14.0231    1.0000 </r>
       <r>  -13.9477    1.0000 </r>
       <r>  -13.9442    1.0000 </r>
       <r>  -13.8979    1.0000 </r>
       <r>  -13.8970    1.0000 </r>
       <r>  -13.7062    1.0000 </r>
       <r>  -13.7042    1.0000 </r>
       <r>  -13.5929    1.0000 </r>
       <r>  -13.5700    1.0000 </r>
       <r>  -13.4133    1.0000 </r>
       <r>  -13.3780    1.0000 </r>
       <r>  -12.8750    1.0000 </r>
       <r>  -12.8738    1.0000 </r>
       <r>  -12.3907    1.0000 </r>
       <r>  -12.3895    1.0000 </r>
       <r>  -12.2205    1.0000 </r>
       <r>  -11.8771    1.0000 </r>
       <r>  -11.8573    1.0000 </r>
       <r>  -11.8540    1.0000 </r>
       <r>  -11.7738    1.0000 </r>
       <r>  -11.6362    1.0000 </r>
       <r>  -11.6309    1.0000 </r>
       <r>  -11.5969    1.0000 </r>
       <r>  -11.5343    1.0000 </r>
       <r>  -11.5221    1.0000 </r>
       <r>  -11.5205    1.0000 </r>
       <r>  -11.3418    1.0000 </r>
       <r>  -11.3350    1.0000 </r>
       <r>  -11.1662    1.0000 </r>
       <r>  -11.1590    1.0000 </r>
       <r>  -11.1544    1.0000 </r>
       <r>  -11.1513    1.0000 </r>
       <r>  -11.0333    1.0000 </r>
       <r>  -11.0274    1.0000 </r>
       <r>  -11.0239    1.0000 </r>
       <r>  -10.9825    1.0000 </r>
       <r>  -10.9144    1.0000 </r>
       <r>  -10.8083    1.0000 </r>
       <r>  -10.8067    1.0000 </r>
       <r>  -10.8061    1.0000 </r>
       <r>  -10.7754    1.0000 </r>
       <r>  -10.7700    1.0000 </r>
       <r>  -10.7397    1.0000 </r>
       <r>  -10.6514    1.0000 </r>
       <r>  -10.6461    1.0000 </r>
       <r>  -10.6326    1.0000 </r>
       <r>  -10.6303    1.0000 </r>
       <r>  -10.5091    1.0000 </r>
       <r>  -10.5022    1.0000 </r>
       <r>  -10.4993    1.0000 </r>
       <r>  -10.4360    1.0000 </r>
       <r>  -10.4303    1.0000 </r>
       <r>  -10.4087    1.0000 </r>
       <r>  -10.3944    1.0000 </r>
       <r>  -10.3904    1.0000 </r>
       <r>  -10.3798    1.0000 </r>
       <r>   -9.9410    1.0000 </r>
       <r>   -9.9378    1.0000 </r>
       <r>   -9.8836    1.0000 </r>
       <r>   -9.7436    1.0000 </r>
       <r>   -9.7405    1.0000 </r>
       <r>   -9.6272    1.0000 </r>
       <r>   -9.6104    1.0000 </r>
       <r>   -9.6024    1.0000 </r>
       <r>   -9.5779    1.0000 </r>
       <r>   -9.5763    1.0000 </r>
       <r>   -9.5713    1.0000 </r>
       <r>   -9.3373    1.0000 </r>
       <r>   -9.2167    1.0000 </r>
       <r>   -9.2009    1.0000 </r>
       <r>   -9.0119    1.0000 </r>
       <r>   -9.0103    1.0000 </r>
       <r>   -8.9319    1.0000 </r>
       <r>   -8.9222    1.0000 </r>
       <r>   -8.9111    1.0000 </r>
       <r>   -8.9027    1.0000 </r>
       <r>   -8.8891    1.0000 </r>
       <r>   -8.8872    1.0000 </r>
       <r>   -8.6976    1.0000 </r>
       <r>   -8.5635    1.0000 </r>
       <r>   -8.5599    1.0000 </r>
       <r>   -8.5477    1.0000 </r>
       <r>   -8.5439    1.0000 </r>
       <r>   -8.4801    1.0000 </r>
       <r>   -8.4679    1.0000 </r>
       <r>   -8.4671    1.0000 </r>
       <r>   -8.4407    1.0000 </r>
       <r>   -8.4104    1.0000 </r>
       <r>   -8.4098    1.0000 </r>
       <r>   -7.9576    1.0000 </r>
       <r>   -7.9487    1.0000 </r>
       <r>   -7.9269    1.0000 </r>
       <r>   -7.9220    1.0000 </r>
       <r>   -7.8962    1.0000 </r>
       <r>   -7.8917    1.0000 </r>
       <r>   -7.7242    1.0000 </r>
       <r>   -7.6247    1.0000 </r>
       <r>   -7.6197    1.0000 </r>
       <r>   -7.5396    1.0000 </r>
       <r>   -7.5217    1.0000 </r>
       <r>   -7.5200    1.0000 </r>
       <r>   -6.9655    1.0000 </r>
       <r>   -6.9541    1.0000 </r>
       <r>   -6.9506    1.0000 </r>
       <r>   -6.7616    1.0000 </r>
       <r>   -6.7566    1.0000 </r>
       <r>   -6.7525    1.0000 </r>
       <r>   -6.7242    1.0000 </r>
       <r>   -6.7082    1.0000 </r>
       <r>   -6.7052    1.0000 </r>
       <r>   -6.6973    1.0000 </r>
       <r>   -6.6954    1.0000 </r>
       <r>   -6.6835    1.0000 </r>
       <r>   -6.6436    1.0000 </r>
       <r>   -6.5572    1.0000 </r>
       <r>   -6.5559    1.0000 </r>
       <r>   -6.2439    1.0000 </r>
       <r>   -6.2431    1.0000 </r>
       <r>   -6.2326    1.0000 </r>
       <r>   -6.2251    1.0000 </r>
       <r>   -6.2229    1.0000 </r>
       <r>   -6.1892    1.0000 </r>
       <r>   -6.1832    1.0000 </r>
       <r>   -5.9420    1.0000 </r>
       <r>   -5.9385    1.0000 </r>
       <r>   -5.9363    1.0000 </r>
       <r>   -3.4960    0.0000 </r>
       <r>   -3.4894    0.0000 </r>
       <r>   -3.1894    0.0000 </r>
       <r>   -3.0752    0.0000 </r>
       <r>   -3.0644    0.0000 </r>
       <r>   -3.0157    0.0000 </r>
       <r>   -3.0152    0.0000 </r>
       <r>   -2.9726    0.0000 </r>
       <r>   -2.2517    0.0000 </r>
       <r>   -2.2451    0.0000 </r>
       <r>   -2.0261    0.0000 </r>
       <r>   -1.6976    0.0000 </r>
       <r>   -1.6937    0.0000 </r>
       <r>   -1.6395    0.0000 </r>
       <r>   -1.6000    0.0000 </r>
       <r>   -1.5577    0.0000 </r>
       <r>   -1.5567    0.0000 </r>
       <r>   -1.3751    0.0000 </r>
       <r>   -1.3593    0.0000 </r>
       <r>   -1.3556    0.0000 </r>
       <r>   -1.2803    0.0000 </r>
       <r>   -1.0352    0.0000 </r>
       <r>   -1.0207    0.0000 </r>
       <r>   -0.7926    0.0000 </r>
       <r>   -0.7694    0.0000 </r>
       <r>   -0.7456    0.0000 </r>
       <r>   -0.7386    0.0000 </r>
       <r>   -0.6378    0.0000 </r>
       <r>   -0.6367    0.0000 </r>
       <r>   -0.5165    0.0000 </r>
       <r>   -0.4382    0.0000 </r>
       <r>   -0.4319    0.0000 </r>
       <r>   -0.1981    0.0000 </r>
       <r>   -0.1879    0.0000 </r>
       <r>   -0.1475    0.0000 </r>
       <r>   -0.1075    0.0000 </r>
       <r>    0.0766    0.0000 </r>
       <r>    0.0816    0.0000 </r>
       <r>    0.1789    0.0000 </r>
       <r>    0.1839    0.0000 </r>
       <r>    0.2941    0.0000 </r>
       <r>    0.4193    0.0000 </r>
       <r>    0.4383    0.0000 </r>
       <r>    0.4777    0.0000 </r>
       <r>    0.4831    0.0000 </r>
       <r>    0.5236    0.0000 </r>
       <r>    0.5692    0.0000 </r>
       <r>    0.5743    0.0000 </r>
       <r>    0.5755    0.0000 </r>
       <r>    0.6365    0.0000 </r>
       <r>    0.7315    0.0000 </r>
       <r>    0.7364    0.0000 </r>
       <r>    0.7684    0.0000 </r>
       <r>    0.7763    0.0000 </r>
       <r>    0.7790    0.0000 </r>
       <r>    0.8261    0.0000 </r>
       <r>    0.8271    0.0000 </r>
       <r>    0.8340    0.0000 </r>
       <r>    0.8496    0.0000 </r>
       <r>    0.8524    0.0000 </r>
       <r>    0.8569    0.0000 </r>
       <r>    0.9109    0.0000 </r>
       <r>    0.9723    0.0000 </r>
       <r>    0.9749    0.0000 </r>
       <r>    1.0350    0.0000 </r>
       <r>    1.0527    0.0000 </r>
       <r>    1.0932    0.0000 </r>
       <r>    1.0981    0.0000 </r>
       <r>    1.1313    0.0000 </r>
       <r>    1.1346    0.0000 </r>
       <r>    1.1462    0.0000 </r>
      </set>
      <set comment="kpoint 2">
       <r>  -27.8421    1.0000 </r>
       <r>  -27.8337    1.0000 </r>
       <r>  -27.8286    1.0000 </r>
       <r>  -27.8258    1.0000 </r>
       <r>  -27.8243    1.0000 </r>
       <r>  -27.8170    1.0000 </r>
       <r>  -25.7819    1.0000 </r>
       <r>  -25.7751    1.0000 </r>
       <r>  -25.7694    1.0000 </r>
       <r>  -25.7648    1.0000 </r>
       <r>  -25.7640    1.0000 </r>
       <r>  -25.7560    1.0000 </r>
       <r>  -25.6861    1.0000 </r>
       <r>  -25.6757    1.0000 </r>
       <r>  -25.2010    1.0000 </r>
       <r>  -25.1997    1.0000 </r>
       <r>  -25.1975    1.0000 </r>
       <r>  -23.3639    1.0000 </r>
       <r>  -23.3624    1.0000 </r>
       <r>  -23.3612    1.0000 </r>
       <r>  -22.7673    1.0000 </r>
       <r>  -22.7654    1.0000 </r>
       <r>  -22.7590    1.0000 </r>
       <r>  -22.7571    1.0000 </r>
       <r>  -21.8363    1.0000 </r>
       <r>  -21.7781    1.0000 </r>
       <r>  -21.7759    1.0000 </r>
       <r>  -21.7190    1.0000 </r>
       <r>  -21.6510    1.0000 </r>
       <r>  -21.6479    1.0000 </r>
       <r>  -20.6248    1.0000 </r>
       <r>  -20.6238    1.0000 </r>
       <r>  -20.6196    1.0000 </r>
       <r>  -19.6761    1.0000 </r>
       <r>  -19.6742    1.0000 </r>
       <r>  -19.5311    1.0000 </r>
       <r>  -19.0189    1.0000 </r>
       <r>  -19.0184    1.0000 </r>
       <r>  -18.8596    1.0000 </r>
       <r>  -18.8485    1.0000 </r>
       <r>  -18.8459    1.0000 </r>
       <r>  -18.8266    1.0000 </r>
       <r>  -18.7630    1.0000 </r>
       <r>  -18.7605    1.0000 </r>
       <r>  -18.6781    1.0000 </r>
       <r>  -17.9015    1.0000 </r>
       <r>  -17.8989    1.0000 </r>
       <r>  -17.8574    1.0000 </r>
       <r>  -17.6779    1.0000 </r>
       <r>  -17.6776    1.0000 </r>
       <r>  -17.1576    1.0000 </r>
       <r>  -16.9596    1.0000 </r>
       <r>  -16.9576    1.0000 </r>
       <r>  -16.2491    1.0000 </r>
       <r>  -16.2483    1.0000 </r>
       <r>  -15.9589    1.0000 </r>
       <r>  -15.7424    1.0000 </r>
       <r>  -15.7375    1.0000 </r>
       <r>  -15.6584    1.0000 </r>
       <r>  -15.6035    1.0000 </r>
       <r>  -15.5232    1.0000 </r>
       <r>  -15.5187    1.0000 </r>
       <r>  -15.4698    1.0000 </r>
       <r>  -15.3736    1.0000 </r>
       <r>  -15.3557    1.0000 </r>
       <r>  -15.3531    1.0000 </r>
       <r>  -15.2347    1.0000 </r>
       <r>  -15.1664    1.0000 </r>
       <r>  -15.1623    1.0000 </r>
       <r>  -14.7200    1.0000 </r>
       <r>  -14.7182    1.0000 </r>
       <r>  -14.6084    1.0000 </r>
       <r>  -14.6048    1.0000 </r>
       <r>  -14.0974    1.0000 </r>
       <r>  -14.0251    1.0000 </r>
       <r>  -14.0232    1.0000 </r>
       <r>  -13.9477    1.0000 </r>
       <r>  -13.9441    1.0000 </r>
       <r>  -13.8979    1.0000 </r>
       <r>  -13.8969    1.0000 </r>
       <r>  -13.7070    1.0000 </r>
       <r>  -13.7042    1.0000 </r>
       <r>  -13.5921    1.0000 </r>
       <r>  -13.5698    1.0000 </r>
       <r>  -13.4136    1.0000 </r>
       <r>  -13.3782    1.0000 </r>
       <r>  -12.8750    1.0000 </r>
       <r>  -12.8733    1.0000 </r>
       <r>  -12.3922    1.0000 </r>
       <r>  -12.3898    1.0000 </r>
       <r>  -12.2187    1.0000 </r>
       <r>  -11.8777    1.0000 </r>
       <r>  -11.8572    1.0000 </r>
       <r>  -11.8537    1.0000 </r>
       <r>  -11.7739    1.0000 </r>
       <r>  -11.6361    1.0000 </r>
       <r>  -11.6309    1.0000 </r>
       <r>  -11.5969    1.0000 </r>
       <r>  -11.5344    1.0000 </r>
       <r>  -11.5222    1.0000 </r>
       <r>  -11.5206    1.0000 </r>
       <r>  -11.3415    1.0000 </r>
       <r>  -11.3350    1.0000 </r>
       <r>  -11.1691    1.0000 </r>
       <r>  -11.1586    1.0000 </r>
       <r>  -11.1520    1.0000 </r>
       <r>  -11.1510    1.0000 </r>
       <r>  -11.0333    1.0000 </r>
       <r>  -11.0274    1.0000 </r>
       <r>  -11.0240    1.0000 </r>
       <r>  -10.9825    1.0000 </r>
       <r>  -10.9145    1.0000 </r>
       <r>  -10.8083    1.0000 </r>
       <r>  -10.8068    1.0000 </r>
       <r>  -10.8061    1.0000 </r>
       <r>  -10.7754    1.0000 </r>
       <r>  -10.7699    1.0000 </r>
       <r>  -10.7397    1.0000 </r>
       <r>  -10.6516    1.0000 </r>
       <r>  -10.6461    1.0000 </r>
       <r>  -10.6324    1.0000 </r>
       <r>  -10.6301    1.0000 </r>
       <r>  -10.5091    1.0000 </r>
       <r>  -10.5022    1.0000 </r>
       <r>  -10.4994    1.0000 </r>
       <r>  -10.4360    1.0000 </r>
       <r>  -10.4303    1.0000 </r>
       <r>  -10.4087    1.0000 </r>
       <r>  -10.3945    1.0000 </r>
       <r>  -10.3905    1.0000 </r>
       <r>  -10.3798    1.0000 </r>
       <r>   -9.9410    1.0000 </r>
       <r>   -9.9377    1.0000 </r>
       <r>   -9.8835    1.0000 </r>
       <r>   -9.7436    1.0000 </r>
       <r>   -9.7408    1.0000 </r>
       <r>   -9.6278    1.0000 </r>
       <r>   -9.6102    1.0000 </r>
       <r>   -9.6022    1.0000 </r>
       <r>   -9.5779    1.0000 </r>
       <r>   -9.5763    1.0000 </r>
       <r>   -9.5707    1.0000 </r>
       <r>   -9.3377    1.0000 </r>
       <r>   -9.2167    1.0000 </r>
       <r>   -9.2009    1.0000 </r>
       <r>   -9.0118    1.0000 </r>
       <r>   -9.0102    1.0000 </r>
       <r>   -8.9319    1.0000 </r>
       <r>   -8.9222    1.0000 </r>
       <r>   -8.9111    1.0000 </r>
       <r>   -8.9025    1.0000 </r>
       <r>   -8.8891    1.0000 </r>
       <r>   -8.8871    1.0000 </r>
       <r>   -8.6981    1.0000 </r>
       <r>   -8.5634    1.0000 </r>
[...]
       <r>   -23.5485     0.0000    34.0000 </r>
       <r>   -23.4421     0.0000    34.0000 </r>
       <r>   -23.3358    56.4003    39.9995 </r>
       <r>   -23.2294     0.0000    40.0000 </r>
       <r>   -23.1230     0.0000    40.0000 </r>
       <r>   -23.0166     0.0000    40.0000 </r>
       <r>   -22.9103     0.0000    40.0000 </r>
       <r>   -22.8039     0.0000    40.0000 </r>
       <r>   -22.6975    75.2072    48.0000 </r>
       <r>   -22.5912     0.0000    48.0000 </r>
       <r>   -22.4848     0.0000    48.0000 </r>
       <r>   -22.3784     0.0000    48.0000 </r>
       <r>   -22.2720     0.0000    48.0000 </r>
       <r>   -22.1657     0.0000    48.0000 </r>
       <r>   -22.0593     0.0000    48.0000 </r>
       <r>   -21.9529     0.0000    48.0000 </r>
       <r>   -21.8465     0.3258    48.0347 </r>
       <r>   -21.7402    41.3669    54.0003 </r>
       <r>   -21.6338    52.5837    59.9601 </r>
       <r>   -21.5274     0.0000    60.0000 </r>
       <r>   -21.4211     0.0000    60.0000 </r>
       <r>   -21.3147     0.0000    60.0000 </r>
       <r>   -21.2083     0.0000    60.0000 </r>
       <r>   -21.1019     0.0000    60.0000 </r>
       <r>   -20.9956     0.0000    60.0000 </r>
       <r>   -20.8892     0.0000    60.0000 </r>
       <r>   -20.7828     0.0000    60.0000 </r>
       <r>   -20.6764     0.0000    60.0000 </r>
       <r>   -20.5701    56.4054    66.0000 </r>
       <r>   -20.4637     0.0000    66.0000 </r>
       <r>   -20.3573     0.0000    66.0000 </r>
       <r>   -20.2510     0.0000    66.0000 </r>
       <r>   -20.1446     0.0000    66.0000 </r>
       <r>   -20.0382     0.0000    66.0000 </r>
       <r>   -19.9318     0.0000    66.0000 </r>
       <r>   -19.8255     0.0000    66.0000 </r>
       <r>   -19.7191     0.0000    66.0000 </r>
       <r>   -19.6127    37.5898    69.9985 </r>
       <r>   -19.5063    10.0272    72.0000 </r>
       <r>   -19.4000     0.0000    72.0000 </r>
       <r>   -19.2936     0.0000    72.0000 </r>
       <r>   -19.1872     0.0000    72.0000 </r>
       <r>   -19.0809     0.0000    72.0000 </r>
       <r>   -18.9745    25.6030    74.7235 </r>
       <r>   -18.8681    16.8940    76.7637 </r>
       <r>   -18.7617    57.7999    87.0150 </r>
       <r>   -18.6554    12.8467    89.9999 </r>
       <r>   -18.5490     0.0000    90.0000 </r>
       <r>   -18.4426     0.0000    90.0000 </r>
       <r>   -18.3362     0.0000    90.0000 </r>
       <r>   -18.2299     0.0000    90.0000 </r>
       <r>   -18.1235     0.0000    90.0000 </r>
       <r>   -18.0171     0.0000    90.0000 </r>
       <r>   -17.9108     0.7142    90.0760 </r>
       <r>   -17.8044    31.6497    96.0000 </r>
       <r>   -17.6980     0.5127    96.0545 </r>
       <r>   -17.5916     6.3759    98.9449 </r>
       <r>   -17.4853     7.3958   100.1200 </r>
       <r>   -17.3789     6.9777   101.0756 </r>
       <r>   -17.2725     2.2599   101.4404 </r>
       <r>   -17.1661     3.2597   101.8467 </r>
       <r>   -17.0598     0.0000   102.0000 </r>
       <r>   -16.9534    14.4201   103.5339 </r>
       <r>   -16.8470     2.3646   104.5182 </r>
       <r>   -16.7407     2.2426   104.8386 </r>
       <r>   -16.6343     5.9251   105.5636 </r>
       <r>   -16.5279     5.0574   106.2713 </r>
       <r>   -16.4215     6.0613   107.1114 </r>
       <r>   -16.3152     2.7965   107.4975 </r>
       <r>   -16.2088    22.2488   110.0000 </r>
       <r>   -16.1024     0.0000   110.0000 </r>
       <r>   -15.9960     0.0000   110.0000 </r>
       <r>   -15.8897     6.7164   110.7144 </r>
       <r>   -15.7833    17.7339   112.8197 </r>
       <r>   -15.6769    24.4517   116.0010 </r>
       <r>   -15.5706    33.4181   119.9881 </r>
       <r>   -15.4642    43.0187   124.9427 </r>
       <r>   -15.3578    28.4368   128.9249 </r>
       <r>   -15.2514    13.2078   132.0050 </r>
       <r>   -15.1451    48.2259   137.9966 </r>
       <r>   -15.0387     0.0000   138.0000 </r>
       <r>   -14.9323     0.0000   138.0000 </r>
       <r>   -14.8259     0.0000   138.0000 </r>
       <r>   -14.7196    10.6627   139.1342 </r>
       <r>   -14.6132    29.0086   143.9524 </r>
       <r>   -14.5068     0.0000   146.0000 </r>
       <r>   -14.4004     0.0000   146.0000 </r>
       <r>   -14.2941     0.0000   146.0000 </r>
       <r>   -14.1877     0.0000   146.0000 </r>
       <r>   -14.0813     8.8705   146.9436 </r>
       <r>   -13.9750    34.4701   152.0000 </r>
       <r>   -13.8686    65.7083   158.9896 </r>
       <r>   -13.7622    13.8227   161.3037 </r>
       <r>   -13.6558    23.1889   164.0000 </r>
       <r>   -13.5495    12.7313   165.3543 </r>
       <r>   -13.4431    27.5282   169.4283 </r>
       <r>   -13.3367    11.5943   172.0000 </r>
       <r>   -13.2303     0.0000   172.0000 </r>
       <r>   -13.1240     0.0000   172.0000 </r>
       <r>   -13.0176     0.0000   172.0000 </r>
       <r>   -12.9112     0.0000   172.0000 </r>
       <r>   -12.8049    25.7386   174.7379 </r>
       <r>   -12.6985     8.7184   175.7941 </r>
       <r>   -12.5921     8.3339   176.9532 </r>
       <r>   -12.4857     3.3202   177.4199 </r>
       <r>   -12.3794    21.7118   179.8096 </r>
       <r>   -12.2730     0.0000   180.0000 </r>
       <r>   -12.1666     4.0947   180.4356 </r>
       <r>   -12.0602     3.9432   180.9861 </r>
       <r>   -11.9539    11.7058   182.7118 </r>
       <r>   -11.8475    19.8489   185.2780 </r>
       <r>   -11.7411    27.5757   190.0000 </r>
       <r>   -11.6348     7.0940   190.7546 </r>
       <r>   -11.5284    61.6308   200.5559 </r>
       <r>   -11.4220     0.0000   202.0000 </r>
       <r>   -11.3156    24.0106   204.5541 </r>
       <r>   -11.2093    17.1206   207.4878 </r>
       <r>   -11.1029    46.3223   212.6941 </r>
       <r>   -10.9965    56.5019   220.0103 </r>
       <r>   -10.8901    28.5153   223.9999 </r>
       <r>   -10.7838    58.5158   230.2245 </r>
       <r>   -10.6774    27.2334   236.0636 </r>
       <r>   -10.5710    56.4052   244.0000 </r>
       <r>   -10.4647    56.4055   250.0000 </r>
       <r>   -10.3583   112.8044   261.9993 </r>
       <r>   -10.2519     0.0000   262.0000 </r>
       <r>   -10.1455     0.0000   262.0000 </r>
       <r>   -10.0392     0.0000   262.0000 </r>
       <r>    -9.9328    19.3785   264.0613 </r>
       <r>    -9.8264    24.4422   268.0000 </r>
       <r>    -9.7200    38.3418   272.0785 </r>
       <r>    -9.6137    14.9197   274.2871 </r>
       <r>    -9.5073    48.9249   282.8710 </r>
       <r>    -9.4009    14.8825   284.9831 </r>
       <r>    -9.2946     6.8940   286.0000 </r>
       <r>    -9.1882    37.3236   289.9702 </r>
       <r>    -9.0818     0.0000   290.0000 </r>
       <r>    -8.9754    26.8807   292.8594 </r>
       <r>    -8.8691   101.6400   304.6784 </r>
       <r>    -8.7627    18.8084   307.0674 </r>
       <r>    -8.6563     6.2673   308.0000 </r>
       <r>    -8.5499    42.2332   312.4925 </r>
       <r>    -8.4436    60.7799   322.4653 </r>
       <r>    -8.3372    27.5758   328.0000 </r>
       <r>    -8.2308     0.0000   328.0000 </r>
       <r>    -8.1245     0.0000   328.0000 </r>
       <r>    -8.0181     0.0000   328.0000 </r>
       <r>    -7.9117    67.1332   335.1411 </r>
       <r>    -7.8053     0.0000   340.0000 </r>
       <r>    -7.6990    11.4520   341.2182 </r>
       <r>    -7.5926    36.3498   346.0000 </r>
       <r>    -7.4862    56.4054   352.0000 </r>
       <r>    -7.3798     0.0000   352.0000 </r>
       <r>    -7.2735     0.0000   352.0000 </r>
       <r>    -7.1671     0.0000   352.0000 </r>
       <r>    -7.0607     0.0000   352.0000 </r>
       <r>    -6.9544    36.0447   355.8342 </r>
       <r>    -6.8480     0.0000   358.0000 </r>
       <r>    -6.7416    52.0895   363.5409 </r>
       <r>    -6.6352    85.7239   376.6188 </r>
       <r>    -6.5289    38.2298   381.9999 </r>
       <r>    -6.4225     0.0000   382.0000 </r>
       <r>    -6.3161     0.0000   382.0000 </r>
       <r>    -6.2097    86.3171   391.1818 </r>
       <r>    -6.1034    11.5936   396.0000 </r>
       <r>    -5.9970     0.0000   396.0000 </r>
       <r>    -5.8906    56.4054   402.0000 </r>
       <r>    -5.7843     0.0000   402.0000 </r>
       <r>    -5.6779     0.0000   402.0000 </r>
       <r>    -5.5715     0.0000   402.0000 </r>
       <r>    -5.4651     0.0000   402.0000 </r>
       <r>    -5.3588     0.0000   402.0000 </r>
       <r>    -5.2524     0.0000   402.0000 </r>
       <r>    -5.1460     0.0000   402.0000 </r>
       <r>    -5.0396     0.0000   402.0000 </r>
       <r>    -4.9333     0.0000   402.0000 </r>
       <r>    -4.8269     0.0000   402.0000 </r>
       <r>    -4.7205     0.0000   402.0000 </r>
       <r>    -4.6142     0.0000   402.0000 </r>
       <r>    -4.5078     0.0000   402.0000 </r>
       <r>    -4.4014     0.0000   402.0000 </r>
       <r>    -4.2950     0.0000   402.0000 </r>
       <r>    -4.1887     0.0000   402.0000 </r>
       <r>    -4.0823     0.0000   402.0000 </r>
       <r>    -3.9759     0.0000   402.0000 </r>
       <r>    -3.8695     0.0000   402.0000 </r>
       <r>    -3.7632     0.0000   402.0000 </r>
       <r>    -3.6568     0.0000   402.0000 </r>
       <r>    -3.5504     0.0000   402.0000 </r>
       <r>    -3.4440    26.8392   404.8550 </r>
       <r>    -3.3377    14.3880   406.7972 </r>
       <r>    -3.2313     4.3969   407.5344 </r>
       <r>    -3.1249     2.8202   408.0000 </r>
       <r>    -3.0186    61.3942   414.5307 </r>
       <r>    -2.9122     3.3845   416.3600 </r>
       <r>    -2.8058     2.7868   416.7298 </r>
       <r>    -2.6994     4.8400   417.3148 </r>
       <r>    -2.5931     5.4955   418.1512 </r>
       <r>    -2.4867     6.5585   419.0310 </r>
       <r>    -2.3803     2.2768   419.3755 </r>
       <r>    -2.2739     3.0685   419.7597 </r>
       <r>    -2.1676    10.3405   422.0000 </r>
       <r>    -2.0612     0.0000   422.0000 </r>
       <r>    -1.9548     4.3103   422.4585 </r>
       <r>    -1.8485     3.1041   422.8969 </r>
       <r>    -1.7421    12.3234   424.3442 </r>
       <r>    -1.6357    31.5891   428.4602 </r>
       <r>    -1.5293    51.9563   435.8601 </r>
       <r>    -1.4230    10.1823   437.4831 </r>
       <r>    -1.3166    28.7540   440.7586 </r>
       <r>    -1.2102    10.3409   444.0000 </r>
       <r>    -1.1038     0.0000   444.0000 </r>
       <r>    -0.9975    27.8820   446.9659 </r>
       <r>    -0.8911    12.0375   449.2805 </r>
       <r>    -0.7847     5.2555   449.9924 </r>
       <r>    -0.6784    43.2452   456.0001 </r>
       <r>    -0.5720    18.8380   458.5372 </r>
       <r>    -0.4656    27.2235   461.5625 </r>
       <r>    -0.3592    28.7562   466.0922 </r>
       <r>    -0.2529     8.3866   467.2921 </r>
       <r>    -0.1465    27.6582   470.4421 </r>
       <r>    -0.0401     9.0874   474.0000 </r>
       <r>     0.0663     0.2887   474.0307 </r>
       <r>     0.1726    49.2520   481.0391 </r>
       <r>     0.2790     0.0368   482.0039 </r>
       <r>     0.3854    22.3286   484.8752 </r>
       <r>     0.4917    47.7049   490.3745 </r>
       <r>     0.5981    48.0468   497.5109 </r>
       <r>     0.7045    54.4945   504.8301 </r>
       <r>     0.8109    54.9352   512.7436 </r>
       <r>     0.9172    71.9693   523.4223 </r>
       <r>     1.0236    62.1998   531.8830 </r>
       <r>     1.1300    61.8590   541.0468 </r>
       <r>     1.2364     4.0737   544.0000 </r>
       <r>     1.3427     0.0000   544.0000 </r>
       <r>     1.4491     0.0000   544.0000 </r>
       <r>     1.5555     0.0000   544.0000 </r>
       <r>     1.6618     0.0000   544.0000 </r>
       <r>     1.7682     0.0000   544.0000 </r>
       <r>     1.8746     0.0000   544.0000 </r>
       <r>     1.9810     0.0000   544.0000 </r>
       <r>     2.0873     0.0000   544.0000 </r>
       <r>     2.1937     0.0000   544.0000 </r>
       <r>     2.3001     0.0000   544.0000 </r>
       <r>     2.4065     0.0000   544.0000 </r>
       <r>     2.5128     0.0000   544.0000 </r>
       <r>     2.6192     0.0000   544.0000 </r>
      </set>
     </set>
    </array>
   </total>
  </dos>
 </calculation>
 <structure name="finalpos" >
  <crystal>
   <varray name="basis" >
    <v>      29.22668170      -0.02538207       0.00000000 </v>
    <v>     -14.63513782      25.35887913       0.00000000 </v>
    <v>       0.00000000       0.00000000      20.00000000 </v>
   </varray>
   <i name="volume">  14815.68837272 </i>
   <varray name="rec_basis" >
    <v>       0.03423247       0.01975627       0.00000000 </v>
    <v>       0.00003426       0.03945369       0.00000000 </v>
    <v>       0.00000000       0.00000000       0.05000000 </v>
   </varray>
  </crystal>
  <varray name="positions" >
   <v>       0.11822069       0.63183348       0.53140250 </v>
   <v>       0.21627771       0.68036045       0.53008314 </v>
   <v>       0.11709687       0.48993768       0.46992429 </v>
   <v>       0.21597238       0.53866318       0.47279592 </v>
   <v>       0.31941870       0.53837504       0.53153537 </v>
   <v>       0.36774765       0.48883741       0.53185543 </v>
   <v>       0.46124370       0.67966025       0.47320440 </v>
   <v>       0.50985409       0.62957335       0.46969056 </v>
   <v>       0.46162024       0.78339013       0.53048865 </v>
   <v>       0.51124335       0.88121930       0.53123728 </v>
   <v>       0.37058150       0.88230604       0.46788440 </v>
   <v>       0.32039349       0.78363232       0.47092587 </v>
   <v>       0.87853106       0.36681674       0.46398106 </v>
   <v>       0.78047834       0.31926844       0.46465760 </v>
   <v>       0.88126613       0.50904283       0.52768814 </v>
   <v>       0.78243507       0.46134999       0.52417845 </v>
   <v>       0.67992726       0.46320837       0.46476532 </v>
   <v>       0.63270800       0.51384659       0.46403873 </v>
   <v>       0.53700438       0.32303929       0.52306834 </v>
   <v>       0.48951007       0.37423702       0.52616107 </v>
   <v>       0.53522674       0.21818969       0.46475267 </v>
   <v>       0.48499423       0.12035604       0.46409622 </v>
   <v>       0.62516981       0.11814229       0.52700777 </v>
   <v>       0.67599006       0.21680760       0.52375179 </v>
   <v>       0.54158406       0.07325579       0.35534071 </v>
   <v>       0.92469691       0.47159550       0.35753111 </v>
   <v>       0.52982530       0.45780146       0.35674263 </v>
   <v>       0.45295265       0.92601801       0.63848013 </v>
   <v>       0.07474144       0.52852144       0.63821829 </v>
   <v>       0.47103359       0.54674037       0.63912264 </v>
   <v>       0.46649484       0.48982262       0.54911867 </v>
   <v>       0.28059250       0.64151137       0.50207679 </v>
   <v>       0.35851459       0.71914651       0.50177458 </v>
   <v>       0.35832870       0.64139707       0.50306473 </v>
   <v>       0.38787086       0.77750301       0.50137101 </v>
   <v>       0.36218601       0.80555195       0.48397687 </v>
   <v>       0.38997853       0.86035045       0.48283626 </v>
   <v>       0.44368100       0.88834850       0.50109896 </v>
   <v>       0.46930518       0.86022773       0.51859141 </v>
   <v>       0.44178609       0.80537699       0.51798981 </v>
   <v>       0.22212746       0.61239792       0.50203394 </v>
   <v>       0.19423974       0.63843621       0.51817404 </v>
   <v>       0.13928513       0.61095670       0.51905701 </v>
   <v>       0.11111555       0.55710772       0.50217419 </v>
   <v>       0.13911653       0.53138415       0.48442098 </v>
   <v>       0.19401703       0.55851895       0.48543430 </v>
   <v>       0.38744521       0.61213825       0.50300341 </v>
   <v>       0.36134270       0.55824344       0.51921865 </v>
   <v>       0.38874032       0.53077114       0.51957995 </v>
   <v>       0.44260644       0.55642853       0.50225875 </v>
   <v>       0.46840310       0.61013618       0.48450297 </v>
   <v>       0.44132740       0.63787492       0.48590826 </v>
   <v>       0.71700071       0.35897541       0.49336115 </v>
   <v>       0.63858683       0.28184426       0.49331920 </v>
   <v>       0.63976076       0.36007683       0.49319229 </v>
   <v>       0.60877965       0.22349741       0.49358600 </v>
   <v>       0.63416325       0.19512872       0.51083946 </v>
   <v>       0.60602498       0.14034505       0.51209024 </v>
   <v>       0.55227292       0.11266477       0.49402138 </v>
   <v>       0.52695610       0.14109624       0.47659878 </v>
   <v>       0.55482925       0.19595994       0.47714717 </v>
   <v>       0.77545706       0.38750248       0.49370121 </v>
   <v>       0.80288127       0.36106988       0.47714935 </v>
   <v>       0.85784083       0.38800265       0.47663714 </v>
   <v>       0.88645797       0.44167033       0.49430845 </v>
   <v>       0.85890587       0.46776144       0.51253109 </v>
   <v>       0.80402486       0.44119400       0.51115870 </v>
   <v>       0.61127292       0.38994864       0.49326517 </v>
   <v>       0.63800327       0.44383422       0.47695683 </v>
   <v>       0.61123423       0.47192279       0.47637027 </v>
   <v>       0.55737857       0.44686997       0.49357425 </v>
   <v>       0.53095174       0.39316174       0.51141093 </v>
   <v>       0.55739923       0.36481138       0.51024141 </v>
   <v>       0.48556575       0.02219446       0.44674607 </v>
   <v>       0.52362732       0.05438727       0.49509504 </v>
   <v>       0.46988590       0.04373082       0.38758455 </v>
   <v>       0.97709820       0.46593949       0.44675568 </v>
   <v>       0.94483823       0.47119099       0.49558566 </v>
   <v>       0.95551195       0.42985591       0.38653441 </v>
   <v>       0.53428207       0.51424623       0.44705511 </v>
   <v>       0.52806047       0.47582401       0.49494819 </v>
   <v>       0.57138162       0.52982809       0.38775704 </v>
   <v>       0.47203933       0.94661450       0.50022417 </v>
   <v>       0.50995527       0.97879960       0.54871321 </v>
   <v>       0.52535916       0.95734626       0.60824580 </v>
   <v>       0.05273340       0.52714014       0.50119188 </v>
   <v>       0.02048574       0.53237545       0.55004588 </v>
   <v>       0.04202674       0.56872257       0.61005392 </v>
   <v>       0.47246560       0.52800466       0.50100630 </v>
   <v>       0.42975665       0.47449384       0.60879078 </v>
   <v>       0.50715667       0.53968343       0.45069681 </v>
   <v>       0.30541056       0.69453109       0.50099010 </v>
   <v>       0.38681255       0.69440749       0.50284735 </v>
   <v>       0.30519670       0.61310215       0.50311831 </v>
   <v>       0.69167161       0.30593072       0.49332792 </v>
   <v>       0.61074879       0.30708404       0.49323290 </v>
   <v>       0.69291098       0.38788778       0.49324545 </v>
   <v>       0.46042624       0.96964105       0.44993779 </v>
   <v>       0.02976479       0.49311675       0.45028707 </v>
   <v>       0.53522405       0.03135100       0.54536051 </v>
   <v>       0.96782684       0.50508114       0.54658249 </v>
   <v>       0.49344825       0.46422194       0.54528965 </v>
   <v>       0.39310112       0.43019077       0.61721109 </v>
   <v>       0.42572160       0.03691292       0.38043897 </v>
   <v>       0.50842903       0.07098147       0.34143831 </v>
   <v>       0.96297682       0.39321851       0.37717055 </v>
   <v>       0.92747279       0.44141714       0.34196703 </v>
   <v>       0.60829082       0.57407781       0.37985172 </v>
   <v>       0.56041515       0.49096033       0.34233798 </v>
   <v>       0.56976205       0.96511136       0.61661002 </v>
   <v>       0.48624419       0.92906676       0.65334425 </v>
   <v>       0.03356726       0.60468387       0.61973922 </v>
   <v>       0.07124373       0.55824126       0.65399327 </v>
   <v>       0.44073935       0.51352033       0.65396660 </v>
  </varray>
 </structure>
</modeling>
