<?xml version="1.0" encoding="ISO-8859-1"?>
<modeling>
 <generator>
  <i name="program" type="string">vasp </i>
  <i name="version" type="string">5.4.4.18Apr17-6-g9f103f2a35  </i>
  <i name="subversion" type="string">(build Jun 07 2020 16:50:00) complex            parallel </i>
  <i name="platform" type="string">LinuxIFC </i>
  <i name="date" type="string">2023 02 20 </i>
  <i name="time" type="string">04:23:06 </i>
 </generator>
 <incar>
  <i type="string" name="SYSTEM">Simulation for cell shape cell volume r</i>
  <i type="int" name="ISTART">     1</i>
  <i type="string" name="PREC">high</i>
  <i type="string" name="ALGO">48</i>
  <i type="int" name="ICHARG">    11</i>
  <i type="int" name="NELM">   200</i>
  <i type="int" name="IBRION">    -1</i>
  <i name="EDIFF">      0.00001000</i>
  <i name="EDIFFG">     -0.01000000</i>
  <i type="int" name="NSW">     0</i>
  <i type="int" name="ISIF">     2</i>
  <i name="ENCUT">    500.00000000</i>
  <i name="POTIM">      0.30000000</i>
  <i type="string" name="LREAL">A</i>
  <i type="int" name="ISMEAR">     0</i>
  <i name="SIGMA">      0.01000000</i>
  <i type="int" name="NWRITE">     0</i>
  <i type="logical" name="LWAVE"> F  </i>
  <i type="logical" name="LCHARG"> F  </i>
  <v type="int" name="KPOINT_BSE">    -1     0     0     0</v>
  <i type="int" name="NELM">   200</i>
  <i type="string" name="GGA">PE</i>
 </incar>
 <structure name="primitive_cell" >
  <crystal>
   <varray name="basis" >
    <v>      29.51503406       0.03467726       0.00000000 </v>
    <v>     -14.72739618      25.52664150       0.00000000 </v>
    <v>       0.00000000       0.00000000      20.00000000 </v>
   </varray>
   <i name="volume">  15078.60797690 </i>
   <varray name="rec_basis" >
    <v>       0.03385809       0.01953416       0.00000000 </v>
    <v>      -0.00004600       0.03914822       0.00000000 </v>
    <v>       0.00000000       0.00000000       0.05000000 </v>
   </varray>
  </crystal>
  <varray name="positions" >
   <v>      -0.46077474       0.08427364       0.35512089 </v>
   <v>      -0.45130035       0.05075688       0.37729362 </v>
   <v>      -0.42437761       0.03471427       0.34954620 </v>
   <v>      -0.47537842       0.02616133       0.44219033 </v>
   <v>      -0.44422439       0.11532964       0.49489205 </v>
   <v>      -0.47312034       0.05738927       0.49666255 </v>
   <v>      -0.39045580       0.14300333       0.48107626 </v>
   <v>      -0.36964105       0.12170827       0.47172292 </v>
   <v>       0.49860859      -0.02826582       0.44377888 </v>
   <v>      -0.47056547       0.14306036      -0.49254251 </v>
   <v>       0.49939159      -0.04936138       0.39945254 </v>
   <v>       0.48753872       0.12174708      -0.48229180 </v>
   <v>      -0.36342831       0.19741230       0.48065747 </v>
   <v>       0.49900389       0.02870456      -0.44675318 </v>
   <v>      -0.44368683       0.19744512      -0.49394421 </v>
   <v>      -0.38975298       0.22523224       0.49303629 </v>
   <v>       0.46986489      -0.05524114      -0.49950744 </v>
   <v>      -0.32154642       0.21915339       0.47097187 </v>
   <v>       0.46983873      -0.02565934      -0.44463648 </v>
   <v>      -0.46395432       0.21919778      -0.48456969 </v>
   <v>      -0.49785645       0.05614288      -0.38326667 </v>
   <v>      -0.45388741       0.08896776      -0.36338223 </v>
   <v>      -0.36091803       0.28317772       0.49366721 </v>
   <v>       0.44083636      -0.11304368      -0.49763122 </v>
   <v>      -0.49635167      -0.12067439       0.45815271 </v>
   <v>       0.44894527      -0.04464322      -0.39886080 </v>
   <v>       0.46027853       0.04288329      -0.35412692 </v>
   <v>       0.46384073      -0.14152824       0.47772157 </v>
   <v>      -0.30840956       0.30776058       0.49178433 </v>
   <v>      -0.38902858       0.30763741       0.49679917 </v>
   <v>       0.37134267      -0.11886500      -0.45292138 </v>
   <v>       0.38983846      -0.14051522      -0.47152975 </v>
   <v>      -0.22007820       0.32090510       0.47451995 </v>
   <v>      -0.46437800       0.32052657       0.48026839 </v>
   <v>       0.43681964      -0.19591198       0.47967124 </v>
   <v>      -0.28401762       0.36023615       0.49665866 </v>
   <v>      -0.36106382       0.36016838      -0.49998154 </v>
   <v>       0.36214409      -0.19496980      -0.47146613 </v>
   <v>       0.45484267      -0.21808515       0.46160663 </v>
   <v>      -0.30855301       0.38819719      -0.49830099 </v>
   <v>      -0.19837826       0.36289251       0.48389342 </v>
   <v>       0.38547448      -0.22321884      -0.49555650 </v>
   <v>      -0.44426515       0.36256692       0.48928403 </v>
   <v>      -0.22617033       0.38919367       0.49658551 </v>
   <v>      -0.39016024       0.38903748      -0.49881431 </v>
   <v>       0.32209580      -0.21629823      -0.45301697 </v>
   <v>      -0.47147350       0.38977296       0.48847006 </v>
   <v>      -0.14406429       0.39012244       0.48339725 </v>
   <v>       0.48650701       0.36892624       0.47906086 </v>
   <v>      -0.12274345       0.36938589       0.47369132 </v>
   <v>       0.35632134      -0.28107356      -0.49682027 </v>
   <v>      -0.19845219       0.44325686      -0.49075043 </v>
   <v>      -0.36398522       0.44320629      -0.48690279 </v>
   <v>      -0.22022108       0.46349813      -0.48138452 </v>
   <v>      -0.32198486       0.46358473      -0.47802907 </v>
   <v>       0.38432862      -0.30552437       0.49781633 </v>
   <v>       0.30383438      -0.30559324      -0.49371451 </v>
   <v>      -0.44525621       0.44389474      -0.49958583 </v>
   <v>      -0.11646639       0.44405925       0.49659138 </v>
   <v>      -0.45727880       0.45769268       0.35911506 </v>
   <v>      -0.14413741       0.47036003      -0.49025538 </v>
   <v>      -0.39132161       0.47030952      -0.48682068 </v>
   <v>      -0.08796311       0.46227772       0.35621006 </v>
   <v>       0.45682659       0.41891415       0.35167831 </v>
   <v>       0.49919892       0.44758173       0.37965824 </v>
   <v>      -0.04035780       0.42395379       0.34705892 </v>
   <v>      -0.05481915       0.45159228       0.37639614 </v>
   <v>       0.45492598      -0.32263639      -0.46680110 </v>
   <v>       0.21537863      -0.32354123      -0.45822653 </v>
   <v>       0.35623532      -0.35792803       0.49216481 </v>
   <v>       0.27938009      -0.35781140       0.49732034 </v>
   <v>      -0.12288965      -0.48760433      -0.48055423 </v>
   <v>      -0.37061679      -0.48754131      -0.47795376 </v>
   <v>      -0.47425285       0.47286212       0.49874795 </v>
   <v>      -0.05860093       0.47299938       0.49661779 </v>
   <v>       0.49722881       0.47311651       0.44258323 </v>
   <v>       0.30375716      -0.38568846       0.48860016 </v>
   <v>      -0.02870015       0.47510986       0.44075105 </v>
   <v>      -0.08798337       0.45438050      -0.36301125 </v>
   <v>       0.43669223      -0.36288760      -0.48463303 </v>
   <v>      -0.46093855       0.45940847      -0.35994623 </v>
   <v>       0.19373552      -0.36338923      -0.47745492 </v>
   <v>       0.38524425      -0.38681063       0.49096497 </v>
   <v>       0.22159791      -0.38667557       0.49697350 </v>
   <v>      -0.02871788      -0.49919052      -0.44753391 </v>
   <v>      -0.47579848      -0.49748835      -0.44714832 </v>
   <v>      -0.05482236       0.49817750      -0.38314454 </v>
   <v>      -0.45118259      -0.49765276      -0.38261321 </v>
   <v>       0.46357310      -0.39042738      -0.48277168 </v>
   <v>      -0.49651602      -0.37152362      -0.46354912 </v>
   <v>       0.13940101      -0.39091804      -0.47677967 </v>
   <v>       0.46828447       0.49858082       0.44045538 </v>
   <v>       0.11809577      -0.37245338      -0.45690979 </v>
   <v>       0.02563418      -0.49928370       0.44039269 </v>
   <v>       0.44688208       0.49620912       0.39497620 </v>
   <v>       0.36165890      -0.43847175       0.46721992 </v>
   <v>       0.19396640      -0.43773418       0.47112996 </v>
   <v>       0.04568444       0.49990689       0.39504874 </v>
   <v>       0.21578930      -0.45582263       0.45207202 </v>
   <v>       0.32154074      -0.45707558       0.44904949 </v>
   <v>      -0.04030715      -0.45976300      -0.35369454 </v>
   <v>      -0.42359163      -0.45454218      -0.35558400 </v>
   <v>       0.02561272      -0.47041875      -0.44723688 </v>
   <v>       0.49837996      -0.46886685      -0.44874202 </v>
   <v>       0.46911926      -0.47104060       0.49487822 </v>
   <v>       0.44029559      -0.44202543       0.49297814 </v>
   <v>       0.05385421      -0.47071539       0.49656624 </v>
   <v>       0.11157495      -0.44178886       0.49659088 </v>
   <v>       0.38916733      -0.46544498       0.46730255 </v>
   <v>       0.13963544      -0.46464661       0.47006657 </v>
   <v>       0.04564659      -0.44956254      -0.40189643 </v>
   <v>       0.49967399      -0.44654163      -0.40463687 </v>
   <v>       0.37041219       0.49432935       0.44902005 </v>
   <v>       0.11852131       0.49563747       0.45003696 </v>
  </varray>
 </structure>
 <varray name="primitive_index" >
  <v type="int" >        1 </v>
  <v type="int" >       49 </v>
  <v type="int" >        2 </v>
  <v type="int" >      100 </v>
  <v type="int" >       85 </v>
  <v type="int" >      108 </v>
  <v type="int" >       84 </v>
  <v type="int" >       37 </v>
  <v type="int" >      101 </v>
  <v type="int" >       86 </v>
  <v type="int" >       39 </v>
  <v type="int" >       36 </v>
  <v type="int" >       83 </v>
  <v type="int" >      107 </v>
  <v type="int" >       87 </v>
  <v type="int" >       82 </v>
  <v type="int" >      105 </v>
  <v type="int" >       38 </v>
  <v type="int" >      106 </v>
  <v type="int" >       35 </v>
  <v type="int" >       52 </v>
  <v type="int" >        8 </v>
  <v type="int" >       80 </v>
  <v type="int" >       64 </v>
  <v type="int" >       24 </v>
  <v type="int" >       41 </v>
  <v type="int" >        7 </v>
  <v type="int" >       65 </v>
  <v type="int" >       46 </v>
  <v type="int" >       47 </v>
  <v type="int" >       25 </v>
  <v type="int" >       63 </v>
  <v type="int" >       28 </v>
  <v type="int" >       33 </v>
  <v type="int" >       66 </v>
  <v type="int" >       79 </v>
  <v type="int" >       81 </v>
  <v type="int" >       62 </v>
  <v type="int" >       23 </v>
  <v type="int" >       48 </v>
  <v type="int" >       89 </v>
  <v type="int" >       61 </v>
  <v type="int" >       99 </v>
  <v type="int" >       88 </v>
  <v type="int" >       94 </v>
  <v type="int" >       26 </v>
  <v type="int" >       98 </v>
  <v type="int" >       90 </v>
  <v type="int" >       34 </v>
  <v type="int" >       27 </v>
  <v type="int" >       59 </v>
  <v type="int" >       93 </v>
  <v type="int" >       95 </v>
  <v type="int" >       30 </v>
  <v type="int" >       31 </v>
  <v type="int" >       44 </v>
  <v type="int" >       43 </v>
  <v type="int" >       97 </v>
  <v type="int" >       91 </v>
  <v type="int" >        5 </v>
  <v type="int" >       92 </v>
  <v type="int" >       96 </v>
  <v type="int" >        3 </v>
  <v type="int" >        6 </v>
  <v type="int" >       51 </v>
  <v type="int" >        4 </v>
  <v type="int" >       50 </v>
  <v type="int" >       21 </v>
  <v type="int" >       16 </v>
  <v type="int" >       60 </v>
  <v type="int" >       58 </v>
  <v type="int" >       29 </v>
  <v type="int" >       32 </v>
  <v type="int" >      114 </v>
  <v type="int" >      112 </v>
  <v type="int" >      104 </v>
  <v type="int" >       45 </v>
  <v type="int" >      102 </v>
  <v type="int" >       10 </v>
  <v type="int" >       78 </v>
  <v type="int" >       12 </v>
  <v type="int" >       68 </v>
  <v type="int" >       73 </v>
  <v type="int" >       67 </v>
  <v type="int" >      111 </v>
  <v type="int" >      113 </v>
  <v type="int" >       53 </v>
  <v type="int" >       54 </v>
  <v type="int" >       77 </v>
  <v type="int" >       22 </v>
  <v type="int" >       69 </v>
  <v type="int" >       55 </v>
  <v type="int" >       15 </v>
  <v type="int" >      103 </v>
  <v type="int" >       13 </v>
  <v type="int" >       74 </v>
  <v type="int" >       72 </v>
  <v type="int" >       40 </v>
  <v type="int" >       18 </v>
  <v type="int" >       19 </v>
  <v type="int" >        9 </v>
  <v type="int" >       11 </v>
  <v type="int" >      110 </v>
  <v type="int" >       56 </v>
  <v type="int" >       57 </v>
  <v type="int" >       76 </v>
  <v type="int" >      109 </v>
  <v type="int" >       70 </v>
  <v type="int" >       75 </v>
  <v type="int" >       71 </v>
  <v type="int" >       42 </v>
  <v type="int" >       14 </v>
  <v type="int" >       20 </v>
  <v type="int" >       17 </v>
 </varray>
 <kpoints>
  <generation param="listgenerated">
   <i name="divisions" type="int">      20 </i>
   <v>       0.00000000       0.00000000       0.00000000 </v>
   <v>       0.50000000       0.00000000       0.00000000 </v>
   <v>       0.33333333       0.33333333       0.00000000 </v>
   <v>       0.00000000       0.00000000       0.00000000 </v>
  </generation>
  <varray name="kpointlist" >
   <v>       0.00000000       0.00000000       0.00000000 </v>
   <v>       0.02631579       0.00000000       0.00000000 </v>
   <v>       0.05263158       0.00000000       0.00000000 </v>
   <v>       0.07894737       0.00000000       0.00000000 </v>
   <v>       0.10526316       0.00000000       0.00000000 </v>
   <v>       0.13157895       0.00000000       0.00000000 </v>
   <v>       0.15789474       0.00000000       0.00000000 </v>
   <v>       0.18421053       0.00000000       0.00000000 </v>
   <v>       0.21052632       0.00000000       0.00000000 </v>
   <v>       0.23684211       0.00000000       0.00000000 </v>
   <v>       0.26315789       0.00000000       0.00000000 </v>
   <v>       0.28947368       0.00000000       0.00000000 </v>
   <v>       0.31578947       0.00000000       0.00000000 </v>
   <v>       0.34210526       0.00000000       0.00000000 </v>
   <v>       0.36842105       0.00000000       0.00000000 </v>
   <v>       0.39473684       0.00000000       0.00000000 </v>
   <v>       0.42105263       0.00000000       0.00000000 </v>
   <v>       0.44736842       0.00000000       0.00000000 </v>
   <v>       0.47368421       0.00000000       0.00000000 </v>
   <v>       0.50000000       0.00000000       0.00000000 </v>
   <v>       0.50000000       0.00000000       0.00000000 </v>
   <v>       0.49122807       0.01754386       0.00000000 </v>
   <v>       0.48245614       0.03508772       0.00000000 </v>
   <v>       0.47368421       0.05263158       0.00000000 </v>
   <v>       0.46491228       0.07017544       0.00000000 </v>
   <v>       0.45614035       0.08771930       0.00000000 </v>
   <v>       0.44736842       0.10526316       0.00000000 </v>
   <v>       0.43859649       0.12280702       0.00000000 </v>
   <v>       0.42982456       0.14035088       0.00000000 </v>
   <v>       0.42105263       0.15789474       0.00000000 </v>
   <v>       0.41228070       0.17543860       0.00000000 </v>
   <v>       0.40350877       0.19298246       0.00000000 </v>
   <v>       0.39473684       0.21052632       0.00000000 </v>
   <v>       0.38596491       0.22807018       0.00000000 </v>
   <v>       0.37719298       0.24561404       0.00000000 </v>
   <v>       0.36842105       0.26315789       0.00000000 </v>
   <v>       0.35964912       0.28070175       0.00000000 </v>
   <v>       0.35087719       0.29824561       0.00000000 </v>
   <v>       0.34210526       0.31578947       0.00000000 </v>
   <v>       0.33333333       0.33333333       0.00000000 </v>
   <v>       0.33333333       0.33333333       0.00000000 </v>
   <v>       0.31578947       0.31578947       0.00000000 </v>
   <v>       0.29824561       0.29824561       0.00000000 </v>
   <v>       0.28070175       0.28070175       0.00000000 </v>
   <v>       0.26315789       0.26315789       0.00000000 </v>
   <v>       0.24561404       0.24561404       0.00000000 </v>
   <v>       0.22807018       0.22807018       0.00000000 </v>
   <v>       0.21052632       0.21052632       0.00000000 </v>
   <v>       0.19298246       0.19298246       0.00000000 </v>
   <v>       0.17543860       0.17543860       0.00000000 </v>
   <v>       0.15789474       0.15789474       0.00000000 </v>
   <v>       0.14035088       0.14035088       0.00000000 </v>
   <v>       0.12280702       0.12280702       0.00000000 </v>
   <v>       0.10526316       0.10526316       0.00000000 </v>
   <v>       0.08771930       0.08771930       0.00000000 </v>
   <v>       0.07017544       0.07017544       0.00000000 </v>
   <v>       0.05263158       0.05263158       0.00000000 </v>
   <v>       0.03508772       0.03508772       0.00000000 </v>
   <v>       0.01754386       0.01754386       0.00000000 </v>
   <v>       0.00000000       0.00000000       0.00000000 </v>
  </varray>
  <varray name="weights" >
   <v>       0.01666667 </v>
   <v>       0.01666667 </v>
   <v>       0.01666667 </v>
   <v>       0.01666667 </v>
   <v>       0.01666667 </v>
   <v>       0.01666667 </v>
   <v>       0.01666667 </v>
   <v>       0.01666667 </v>
   <v>       0.01666667 </v>
   <v>       0.01666667 </v>
   <v>       0.01666667 </v>
   <v>       0.01666667 </v>
   <v>       0.01666667 </v>
   <v>       0.01666667 </v>
   <v>       0.01666667 </v>
   <v>       0.01666667 </v>
   <v>       0.01666667 </v>
   <v>       0.01666667 </v>
   <v>       0.01666667 </v>
   <v>       0.01666667 </v>
   <v>       0.01666667 </v>
   <v>       0.01666667 </v>
   <v>       0.01666667 </v>
   <v>       0.01666667 </v>
   <v>       0.01666667 </v>
   <v>       0.01666667 </v>
   <v>       0.01666667 </v>
   <v>       0.01666667 </v>
   <v>       0.01666667 </v>
   <v>       0.01666667 </v>
   <v>       0.01666667 </v>
   <v>       0.01666667 </v>
   <v>       0.01666667 </v>
   <v>       0.01666667 </v>
   <v>       0.01666667 </v>
   <v>       0.01666667 </v>
   <v>       0.01666667 </v>
   <v>       0.01666667 </v>
   <v>       0.01666667 </v>
   <v>       0.01666667 </v>
   <v>       0.01666667 </v>
   <v>       0.01666667 </v>
   <v>       0.01666667 </v>
   <v>       0.01666667 </v>
   <v>       0.01666667 </v>
   <v>       0.01666667 </v>
   <v>       0.01666667 </v>
   <v>       0.01666667 </v>
   <v>       0.01666667 </v>
   <v>       0.01666667 </v>
   <v>       0.01666667 </v>
   <v>       0.01666667 </v>
   <v>       0.01666667 </v>
   <v>       0.01666667 </v>
   <v>       0.01666667 </v>
   <v>       0.01666667 </v>
   <v>       0.01666667 </v>
   <v>       0.01666667 </v>
   <v>       0.01666667 </v>
   <v>       0.01666667 </v>
  </varray>
 </kpoints>
 <parameters>
  <separator name="general" >
   <i type="string" name="SYSTEM">Simulation for cell shape cell volume r</i>
   <i type="logical" name="LCOMPAT"> F  </i>
  </separator>
  <separator name="electronic" >
   <i type="string" name="PREC">high</i>
   <i name="ENMAX">    500.00000000</i>
   <i name="ENAUG">    644.87300000</i>
   <i name="EDIFF">      0.00001000</i>
   <i type="int" name="IALGO">    38</i>
   <i type="int" name="IWAVPR">    10</i>
   <i type="int" name="NBANDS">   272</i>
   <i name="NELECT">    402.00000000</i>
   <i type="int" name="TURBO">     0</i>
   <i type="int" name="IRESTART">     0</i>
   <i type="int" name="NREBOOT">     0</i>
   <i type="int" name="NMIN">     0</i>
   <i name="EREF">      0.00000000</i>
   <separator name="electronic smearing" >
    <i type="int" name="ISMEAR">     0</i>
    <i name="SIGMA">      0.01000000</i>
    <i name="KSPACING">      0.50000000</i>
    <i type="logical" name="KGAMMA"> T  </i>
   </separator>
   <separator name="electronic projectors" >
    <i type="logical" name="LREAL"> T  </i>
    <v name="ROPT">     -0.00040000     -0.00040000     -0.00040000     -0.00040000</v>
    <i type="int" name="LMAXPAW">  -100</i>
    <i type="int" name="LMAXMIX">     2</i>
    <i type="logical" name="NLSPLINE"> F  </i>
   </separator>
   <separator name="electronic startup" >
    <i type="int" name="ISTART">     1</i>
    <i type="int" name="ICHARG">    11</i>
    <i type="int" name="INIWAV">     1</i>
   </separator>
   <separator name="electronic spin" >
    <i type="int" name="ISPIN">     1</i>
    <i type="logical" name="LNONCOLLINEAR"> F  </i>
    <v name="MAGMOM">      1.00000000      1.00000000      1.00000000      1.00000000      1.00000000      1.00000000      1.00000000      1.00000000      1.00000000      1.00000000      1.00000000      1.00000000      1.00000000      1.00000000      1.00000000      1.00000000      1.00000000      1.00000000      1.00000000      1.00000000
      1.00000000      1.00000000      1.00000000      1.00000000      1.00000000      1.00000000      1.00000000      1.00000000      1.00000000      1.00000000      1.00000000      1.00000000      1.00000000      1.00000000      1.00000000      1.00000000      1.00000000      1.00000000      1.00000000      1.00000000
      1.00000000      1.00000000      1.00000000      1.00000000      1.00000000      1.00000000      1.00000000      1.00000000      1.00000000      1.00000000      1.00000000      1.00000000      1.00000000      1.00000000      1.00000000      1.00000000      1.00000000      1.00000000      1.00000000      1.00000000
      1.00000000      1.00000000      1.00000000      1.00000000      1.00000000      1.00000000      1.00000000      1.00000000      1.00000000      1.00000000      1.00000000      1.00000000      1.00000000      1.00000000      1.00000000      1.00000000      1.00000000      1.00000000      1.00000000      1.00000000
      1.00000000      1.00000000      1.00000000      1.00000000      1.00000000      1.00000000      1.00000000      1.00000000      1.00000000      1.00000000      1.00000000      1.00000000      1.00000000      1.00000000      1.00000000      1.00000000      1.00000000      1.00000000      1.00000000      1.00000000
      1.00000000      1.00000000      1.00000000      1.00000000      1.00000000      1.00000000      1.00000000      1.00000000      1.00000000      1.00000000      1.00000000      1.00000000      1.00000000      1.00000000</v>
    <i name="NUPDOWN">     -1.00000000</i>
    <i type="logical" name="LSORBIT"> F  </i>
    <v name="SAXIS">      0.00000000      0.00000000      1.00000000</v>
    <i type="logical" name="LSPIRAL"> F  </i>
    <v name="QSPIRAL">      0.00000000      0.00000000      0.00000000</v>
    <i type="logical" name="LZEROZ"> F  </i>
   </separator>
   <separator name="electronic exchange-correlation" >
    <i type="logical" name="LASPH"> F  </i>
    <i type="logical" name="LMETAGGA"> F  </i>
   </separator>
   <separator name="electronic convergence" >
    <i type="int" name="NELM">   200</i>
    <i type="int" name="NELMDL">     0</i>
    <i type="int" name="NELMIN">     2</i>
    <i name="ENINI">    500.00000000</i>
    <separator name="electronic convergence detail" >
     <i type="logical" name="LDIAG"> T  </i>
     <i type="logical" name="LSUBROT"> F  </i>
     <i name="WEIMIN">      0.00000000</i>
     <i name="EBREAK">      0.00000001</i>
     <i name="DEPER">      0.30000000</i>
     <i type="int" name="NRMM">     4</i>
     <i name="TIME">      0.40000000</i>
    </separator>
   </separator>
   <separator name="electronic mixer" >
    <i name="AMIX">      0.40000000</i>
    <i name="BMIX">      1.00000000</i>
    <i name="AMIN">      0.10000000</i>
    <i name="AMIX_MAG">      1.60000000</i>
    <i name="BMIX_MAG">      1.00000000</i>
    <separator name="electronic mixer details" >
     <i type="int" name="IMIX">     4</i>
     <i type="logical" name="MIXFIRST"> F  </i>
     <i type="int" name="MAXMIX">   -45</i>
     <i name="WC">    100.00000000</i>
     <i type="int" name="INIMIX">     1</i>
     <i type="int" name="MIXPRE">     1</i>
     <i type="int" name="MREMOVE">     5</i>
    </separator>
   </separator>
   <separator name="electronic dipolcorrection" >
    <i type="logical" name="LDIPOL"> F  </i>
    <i type="logical" name="LMONO"> F  </i>
    <i type="int" name="IDIPOL">     0</i>
    <i name="EPSILON">      1.00000000</i>
    <v name="DIPOL">   -100.00000000   -100.00000000   -100.00000000</v>
    <i name="EFIELD">      0.00000000</i>
   </separator>
  </separator>
  <separator name="grids" >
   <i type="int" name="NGX">   216</i>
   <i type="int" name="NGY">   216</i>
   <i type="int" name="NGZ">   150</i>
   <i type="int" name="NGXF">   336</i>
   <i type="int" name="NGYF">   336</i>
   <i type="int" name="NGZF">   224</i>
   <i type="logical" name="ADDGRID"> F  </i>
  </separator>
  <separator name="ionic" >
   <i type="int" name="NSW">     0</i>
   <i type="int" name="IBRION">    -1</i>
   <i type="int" name="MDALGO">     0</i>
   <i type="int" name="ISIF">     2</i>
   <i name="PSTRESS">      0.00000000</i>
   <i name="EDIFFG">     -0.01000000</i>
   <i type="int" name="NFREE">     0</i>
   <i name="POTIM">      0.30000000</i>
   <i name="SMASS">     -3.00000000</i>
   <i name="SCALEE">      1.00000000</i>
  </separator>
  <separator name="ionic md" >
   <i name="TEBEG">      0.00010000</i>
   <i name="TEEND">      0.00010000</i>
   <i type="int" name="NBLOCK">     1</i>
   <i type="int" name="KBLOCK">     1</i>
   <i type="int" name="NPACO">   256</i>
   <i name="APACO">     16.00000000</i>
  </separator>
  <separator name="symmetry" >
   <i type="int" name="ISYM">     2</i>
   <i name="SYMPREC">      0.00001000</i>
  </separator>
  <separator name="dos" >
   <i type="int" name="LORBIT">     0</i>
   <v name="RWIGS">     -1.00000000     -1.00000000     -1.00000000     -1.00000000</v>
   <i type="int" name="NEDOS">   301</i>
   <i name="EMIN">     10.00000000</i>
   <i name="EMAX">    -10.00000000</i>
   <i name="EFERMI">      0.00000000</i>
  </separator>
  <separator name="writing" >
   <i type="int" name="NWRITE">     0</i>
   <i type="logical" name="LWAVE"> F  </i>
   <i type="logical" name="LDOWNSAMPLE"> F  </i>
   <i type="logical" name="LCHARG"> F  </i>
   <i type="logical" name="LPARD"> F  </i>
   <i type="logical" name="LVTOT"> F  </i>
   <i type="logical" name="LVHAR"> F  </i>
   <i type="logical" name="LELF"> F  </i>
   <i type="logical" name="LOPTICS"> F  </i>
   <v name="STM">      0.00000000      0.00000000      0.00000000      0.00000000      0.00000000      0.00000000      0.00000000</v>
  </separator>
  <separator name="performance" >
   <i type="int" name="NPAR">    16</i>
   <i type="int" name="NSIM">     4</i>
   <i type="int" name="NBLK">    -1</i>
   <i type="logical" name="LPLANE"> T  </i>
   <i type="logical" name="LSCALAPACK"> T  </i>
   <i type="logical" name="LSCAAWARE"> F  </i>
   <i type="logical" name="LSCALU"> F  </i>
   <i type="logical" name="LASYNC"> F  </i>
   <i type="logical" name="LORBITALREAL"> F  </i>
  </separator>
  <separator name="miscellaneous" >
   <i type="int" name="IDIOT">     3</i>
   <i type="int" name="ISPECIAL">     0</i>
   <i type="logical" name="LMUSIC"> F  </i>
   <v name="POMASS">     16.00000000      1.00000000     14.00100000     12.01100000</v>
   <v name="DARWINR">      0.00000000      0.00000000      0.00000000      0.00000000</v>
   <v name="DARWINV">      1.00000000      1.00000000      1.00000000      1.00000000</v>
   <i type="logical" name="LCORR"> T  </i>
  </separator>
  <i type="logical" name="GGA_COMPAT"> T  </i>
  <i type="logical" name="LBERRY"> F  </i>
  <i type="int" name="ICORELEVEL">     0</i>
  <i type="logical" name="LDAU"> F  </i>
  <i type="int" name="I_CONSTRAINED_M">     0</i>
  <separator name="electronic exchange-correlation" >
   <i type="string" name="GGA">PE</i>
   <i type="int" name="VOSKOWN">     0</i>
   <i type="logical" name="LHFCALC"> F  </i>
   <i type="string" name="PRECFOCK"></i>
   <i type="logical" name="LSYMGRAD"> F  </i>
   <i type="logical" name="LHFONE"> F  </i>
   <i type="logical" name="LRHFCALC"> F  </i>
   <i type="logical" name="LTHOMAS"> F  </i>
   <i type="logical" name="LMODELHF"> F  </i>
   <i name="ENCUT4O">     -1.00000000</i>
   <i type="int" name="EXXOEP">     0</i>
   <i type="int" name="FOURORBIT">     0</i>
   <i name="AEXX">      0.00000000</i>
   <i name="HFALPHA">      0.00000000</i>
   <i name="MCALPHA">      0.00000000</i>
   <i name="ALDAX">      1.00000000</i>
   <i name="AGGAX">      1.00000000</i>
   <i name="ALDAC">      1.00000000</i>
   <i name="AGGAC">      1.00000000</i>
   <i type="int" name="NKREDX">     1</i>
   <i type="int" name="NKREDY">     1</i>
   <i type="int" name="NKREDZ">     1</i>
   <i type="logical" name="SHIFTRED"> F  </i>
   <i type="logical" name="ODDONLY"> F  </i>
   <i type="logical" name="EVENONLY"> F  </i>
   <i type="int" name="LMAXFOCK">     0</i>
   <i type="int" name="NMAXFOCKAE">     0</i>
   <i type="logical" name="LFOCKAEDFT"> F  </i>
   <i name="HFSCREEN">      0.00000000</i>
   <i name="HFSCREENC">      0.00000000</i>
   <i type="int" name="NBANDSGWLOW">     0</i>
  </separator>
  <separator name="vdW DFT" >
   <i type="logical" name="LUSE_VDW"> F  </i>
   <i name="Zab_VDW">     -0.84910000</i>
   <i name="PARAM1">      0.12340000</i>
   <i name="PARAM2">      1.00000000</i>
   <i name="PARAM3">      0.00000000</i>
  </separator>
  <separator name="model GW" >
   <i type="int" name="MODEL_GW">     0</i>
   <i name="MODEL_EPS0">     79.36109462</i>
   <i name="MODEL_ALPHA">      1.00000000</i>
  </separator>
  <separator name="linear response parameters" >
   <i type="logical" name="LEPSILON"> F  </i>
   <i type="logical" name="LRPA"> F  </i>
   <i type="logical" name="LNABLA"> F  </i>
   <i type="logical" name="LVEL"> F  </i>
   <i type="int" name="KINTER">     0</i>
   <i name="CSHIFT">      0.10000000</i>
   <i name="OMEGAMAX">     -1.00000000</i>
   <i name="DEG_THRESHOLD">      0.00200000</i>
   <i name="RTIME">     -0.10000000</i>
   <i name="WPLASMAI">      0.00000000</i>
   <v name="DFIELD">      0.00000000      0.00000000      0.00000000</v>
   <v name="WPLASMA">      0.00000000      0.00000000      0.00000000      0.00000000      0.00000000      0.00000000      0.00000000      0.00000000      0.00000000</v>
  </separator>
  <separator name="orbital magnetization" >
   <i type="logical" name="NUCIND"> F  </i>
   <v name="MAGPOS">      0.00000000      0.00000000      0.00000000</v>
   <i type="logical" name="LNICSALL"> T  </i>
   <i type="logical" name="ORBITALMAG"> F  </i>
   <i type="logical" name="LMAGBLOCH"> F  </i>
   <i type="logical" name="LCHIMAG"> F  </i>
   <i type="logical" name="LGAUGE"> T  </i>
   <i type="int" name="MAGATOM">     0</i>
   <v name="MAGDIPOL">      0.00000000      0.00000000      0.00000000</v>
   <v name="AVECCONST">      0.00000000      0.00000000      0.00000000</v>
  </separator>
  <separator name="response functions" >
   <i type="logical" name="LADDER"> F  </i>
   <i type="logical" name="LRPAFORCE"> F  </i>
   <i type="logical" name="LFXC"> F  </i>
   <i type="logical" name="LHARTREE"> T  </i>
   <i type="int" name="IBSE">     0</i>
   <v type="int" name="KPOINT">    -1     0     0     0</v>
   <i type="logical" name="LTCTE"> F  </i>
   <i type="logical" name="LTETE"> F  </i>
   <i type="logical" name="LTRIPLET"> F  </i>
   <i type="logical" name="LFXCEPS"> F  </i>
   <i type="logical" name="LFXHEG"> F  </i>
   <i type="int" name="NATURALO">     2</i>
   <i type="logical" name="L2ORDER"> F  </i>
   <i type="logical" name="LMP2LT"> F  </i>
   <i type="logical" name="LUSEW"> F  </i>
   <i name="ENCUTGW">     -2.00000000</i>
   <i name="ENCUTGWSOFT">     -2.00000000</i>
   <i name="ENCUTLF">     -1.00000000</i>
   <i type="int" name="LMAXMP2">    -1</i>
   <i name="SCISSOR">      0.00000000</i>
   <i type="int" name="NOMEGA">     0</i>
   <i type="int" name="NOMEGAR">     0</i>
   <i type="int" name="NBANDSGW">    -1</i>
   <i type="int" name="NBANDSO">    -1</i>
   <i type="int" name="NBANDSV">    -1</i>
   <i type="int" name="NELM">   200</i>
   <i type="int" name="NELMHF">     1</i>
   <i type="int" name="DIM">     3</i>
   <i type="int" name="ANTIRES">     0</i>
   <i name="OMEGAMAX">    -30.00000000</i>
   <i name="OMEGAMIN">    -30.00000000</i>
   <i name="OMEGATL">   -200.00000000</i>
   <i type="int" name="OMEGAGRID">   140</i>
   <i name="CSHIFT">     -0.10000000</i>
   <i type="logical" name="SELFENERGY"> F  </i>
   <i type="logical" name="LSPECTRAL"> F  </i>
   <i type="logical" name="LSPECTRALGW"> F  </i>
   <i type="logical" name="LSINGLES"> F  </i>
   <i type="logical" name="LFERMIGW"> F  </i>
   <i type="logical" name="ODDONLYGW"> F  </i>
   <i type="logical" name="EVENONLYGW"> F  </i>
   <i type="int" name="NKREDLFX">     1</i>
   <i type="int" name="NKREDLFY">     1</i>
   <i type="int" name="NKREDLFZ">     1</i>
   <i type="int" name="MAXMEM">  2800</i>
   <i type="int" name="TELESCOPE">     0</i>
   <i type="int" name="TAUPAR">     1</i>
   <i type="int" name="OMEGAPAR">    -1</i>
   <i name="LAMBDA">      1.00000000</i>
  </separator>
  <separator name="External order field" >
   <i name="OFIELD_KAPPA">      0.00000000</i>
   <v name="OFIELD_K">      0.00000000      0.00000000      0.00000000</v>
   <i name="OFIELD_Q6_NEAR">      0.00000000</i>
   <i name="OFIELD_Q6_FAR">      0.00000000</i>
   <i name="OFIELD_A">      0.00000000</i>
  </separator>
  <separator name="solvation model" >
   <i type="logical" name="LSOL"> F  </i>
  </separator>
 </parameters>
 <atominfo>
  <atoms>     114 </atoms>
  <types>       4 </types>
  <array name="atoms" >
   <dimension dim="1">ion</dimension>
   <field type="string">element</field>
   <field type="int">atomtype</field>
   <set>
    <rc><c>O </c><c>   1</c></rc>
    <rc><c>O </c><c>   1</c></rc>
    <rc><c>O </c><c>   1</c></rc>
    <rc><c>O </c><c>   1</c></rc>
    <rc><c>O </c><c>   1</c></rc>
    <rc><c>O </c><c>   1</c></rc>
    <rc><c>O </c><c>   1</c></rc>
    <rc><c>O </c><c>   1</c></rc>
    <rc><c>O </c><c>   1</c></rc>
    <rc><c>O </c><c>   1</c></rc>
    <rc><c>O </c><c>   1</c></rc>
    <rc><c>O </c><c>   1</c></rc>
    <rc><c>H </c><c>   2</c></rc>
    <rc><c>H </c><c>   2</c></rc>
    <rc><c>H </c><c>   2</c></rc>
    <rc><c>H </c><c>   2</c></rc>
    <rc><c>H </c><c>   2</c></rc>
    <rc><c>H </c><c>   2</c></rc>
    <rc><c>H </c><c>   2</c></rc>
    <rc><c>H </c><c>   2</c></rc>
    <rc><c>H </c><c>   2</c></rc>
    <rc><c>H </c><c>   2</c></rc>
    <rc><c>H </c><c>   2</c></rc>
    <rc><c>H </c><c>   2</c></rc>
    <rc><c>H </c><c>   2</c></rc>
    <rc><c>H </c><c>   2</c></rc>
    <rc><c>H </c><c>   2</c></rc>
    <rc><c>H </c><c>   2</c></rc>
    <rc><c>H </c><c>   2</c></rc>
    <rc><c>H </c><c>   2</c></rc>
    <rc><c>H </c><c>   2</c></rc>
    <rc><c>H </c><c>   2</c></rc>
    <rc><c>H </c><c>   2</c></rc>
    <rc><c>H </c><c>   2</c></rc>
    <rc><c>H </c><c>   2</c></rc>
    <rc><c>H </c><c>   2</c></rc>
    <rc><c>H </c><c>   2</c></rc>
    <rc><c>H </c><c>   2</c></rc>
    <rc><c>H </c><c>   2</c></rc>
    <rc><c>H </c><c>   2</c></rc>
    <rc><c>H </c><c>   2</c></rc>
    <rc><c>H </c><c>   2</c></rc>
    <rc><c>N </c><c>   3</c></rc>
    <rc><c>N </c><c>   3</c></rc>
    <rc><c>N </c><c>   3</c></rc>
    <rc><c>N </c><c>   3</c></rc>
    <rc><c>N </c><c>   3</c></rc>
    <rc><c>N </c><c>   3</c></rc>
    <rc><c>N </c><c>   3</c></rc>
    <rc><c>N </c><c>   3</c></rc>
    <rc><c>N </c><c>   3</c></rc>
    <rc><c>N </c><c>   3</c></rc>
    <rc><c>N </c><c>   3</c></rc>
    <rc><c>N </c><c>   3</c></rc>
    <rc><c>C </c><c>   4</c></rc>
    <rc><c>C </c><c>   4</c></rc>
    <rc><c>C </c><c>   4</c></rc>
    <rc><c>C </c><c>   4</c></rc>
    <rc><c>C </c><c>   4</c></rc>
    <rc><c>C </c><c>   4</c></rc>
    <rc><c>C </c><c>   4</c></rc>
    <rc><c>C </c><c>   4</c></rc>
    <rc><c>C </c><c>   4</c></rc>
    <rc><c>C </c><c>   4</c></rc>
    <rc><c>C </c><c>   4</c></rc>
    <rc><c>C </c><c>   4</c></rc>
    <rc><c>C </c><c>   4</c></rc>
    <rc><c>C </c><c>   4</c></rc>
    <rc><c>C </c><c>   4</c></rc>
    <rc><c>C </c><c>   4</c></rc>
    <rc><c>C </c><c>   4</c></rc>
    <rc><c>C </c><c>   4</c></rc>
    <rc><c>C </c><c>   4</c></rc>
    <rc><c>C </c><c>   4</c></rc>
    <rc><c>C </c><c>   4</c></rc>
    <rc><c>C </c><c>   4</c></rc>
    <rc><c>C </c><c>   4</c></rc>
    <rc><c>C </c><c>   4</c></rc>
    <rc><c>C </c><c>   4</c></rc>
    <rc><c>C </c><c>   4</c></rc>
    <rc><c>C </c><c>   4</c></rc>
    <rc><c>C </c><c>   4</c></rc>
    <rc><c>C </c><c>   4</c></rc>
    <rc><c>C </c><c>   4</c></rc>
    <rc><c>C </c><c>   4</c></rc>
    <rc><c>C </c><c>   4</c></rc>
    <rc><c>C </c><c>   4</c></rc>
    <rc><c>C </c><c>   4</c></rc>
    <rc><c>C </c><c>   4</c></rc>
    <rc><c>C </c><c>   4</c></rc>
    <rc><c>C </c><c>   4</c></rc>
    <rc><c>C </c><c>   4</c></rc>
    <rc><c>C </c><c>   4</c></rc>
    <rc><c>C </c><c>   4</c></rc>
    <rc><c>C </c><c>   4</c></rc>
    <rc><c>C </c><c>   4</c></rc>
    <rc><c>C </c><c>   4</c></rc>
    <rc><c>C </c><c>   4</c></rc>
    <rc><c>C </c><c>   4</c></rc>
    <rc><c>C </c><c>   4</c></rc>
    <rc><c>C </c><c>   4</c></rc>
    <rc><c>C </c><c>   4</c></rc>
    <rc><c>C </c><c>   4</c></rc>
    <rc><c>C </c><c>   4</c></rc>
    <rc><c>C </c><c>   4</c></rc>
    <rc><c>C </c><c>   4</c></rc>
    <rc><c>C </c><c>   4</c></rc>
    <rc><c>C </c><c>   4</c></rc>
    <rc><c>C </c><c>   4</c></rc>
    <rc><c>C </c><c>   4</c></rc>
    <rc><c>C </c><c>   4</c></rc>
    <rc><c>C </c><c>   4</c></rc>
    <rc><c>C </c><c>   4</c></rc>
    <rc><c>C </c><c>   4</c></rc>
   </set>
  </array>
  <array name="atomtypes" >
   <dimension dim="1">type</dimension>
   <field type="int">atomspertype</field>
   <field type="string">element</field>
   <field>mass</field>
   <field>valence</field>
   <field type="string">pseudopotential</field>
   <set>
    <rc><c>  12</c><c>O </c><c>     16.00000000</c><c>      6.00000000</c><c>  PAW_PBE O 08Apr2002                   </c></rc>
    <rc><c>  30</c><c>H </c><c>      1.00000000</c><c>      1.00000000</c><c>  PAW_PBE H 15Jun2001                   </c></rc>
    <rc><c>  12</c><c>N </c><c>     14.00100000</c><c>      5.00000000</c><c>  PAW_PBE N 08Apr2002                   </c></rc>
    <rc><c>  60</c><c>C </c><c>     12.01100000</c><c>      4.00000000</c><c>  PAW_PBE C 08Apr2002                   </c></rc>
   </set>
  </array>
 </atominfo>
 <structure name="initialpos" >
  <crystal>
   <varray name="basis" >
    <v>      29.51503406       0.03467726       0.00000000 </v>
    <v>     -14.72739618      25.52664150       0.00000000 </v>
    <v>       0.00000000       0.00000000      20.00000000 </v>
   </varray>
   <i name="volume">  15078.60797690 </i>
   <varray name="rec_basis" >
    <v>       0.03385809       0.01953416       0.00000000 </v>
    <v>      -0.00004600       0.03914822       0.00000000 </v>
    <v>       0.00000000       0.00000000       0.05000000 </v>
   </varray>
  </crystal>
  <varray name="positions" >
   <v>       0.53922526       0.08427364       0.35512089 </v>
   <v>       0.57562239       0.03471427       0.34954620 </v>
   <v>       0.91203689       0.46227772       0.35621006 </v>
   <v>       0.95964220       0.42395379       0.34705892 </v>
   <v>       0.54272120       0.45769268       0.35911506 </v>
   <v>       0.45682659       0.41891415       0.35167831 </v>
   <v>       0.46027853       0.04288329       0.64587308 </v>
   <v>       0.54611259       0.08896776       0.63661777 </v>
   <v>       0.95969285       0.54023700       0.64630546 </v>
   <v>       0.91201663       0.45438050       0.63698875 </v>
   <v>       0.57640837       0.54545782       0.64441600 </v>
   <v>       0.53906145       0.45940847       0.64005377 </v>
   <v>       0.44688208       0.49620912       0.39497620 </v>
   <v>       0.49967399       0.55345837       0.59536313 </v>
   <v>       0.11809577       0.62754662       0.54309021 </v>
   <v>       0.21537863       0.67645877       0.54177347 </v>
   <v>       0.11852131       0.49563747       0.45003696 </v>
   <v>       0.21578930       0.54417737       0.45207202 </v>
   <v>       0.32154074       0.54292442       0.44904949 </v>
   <v>       0.37041219       0.49432935       0.44902005 </v>
   <v>       0.45492598       0.67736361       0.53319890 </v>
   <v>       0.50348398       0.62847638       0.53645088 </v>
   <v>       0.45484267       0.78191485       0.46160663 </v>
   <v>       0.50364833       0.87932561       0.45815271 </v>
   <v>       0.37134267       0.88113500       0.54707862 </v>
   <v>       0.32209580       0.78370177       0.54698303 </v>
   <v>       0.87725655       0.36938589       0.47369132 </v>
   <v>       0.77992180       0.32090510       0.47451995 </v>
   <v>       0.87711035       0.51239567       0.51944577 </v>
   <v>       0.77977892       0.46349813       0.51861548 </v>
   <v>       0.67801514       0.46358473       0.52197093 </v>
   <v>       0.62938321       0.51245869       0.52204624 </v>
   <v>       0.53562200       0.32052657       0.48026839 </v>
   <v>       0.48650701       0.36892624       0.47906086 </v>
   <v>       0.53604568       0.21919778       0.51543031 </v>
   <v>       0.48753872       0.12174708       0.51770820 </v>
   <v>       0.63035895       0.12170827       0.47172292 </v>
   <v>       0.67845358       0.21915339       0.47097187 </v>
   <v>       0.49939159       0.95063862       0.39945254 </v>
   <v>       0.04568444       0.49990689       0.39504874 </v>
   <v>       0.44894527       0.95535678       0.60113920 </v>
   <v>       0.04564659       0.55043746       0.59810357 </v>
   <v>       0.30383438       0.69440676       0.50628549 </v>
   <v>       0.38432862       0.69447563       0.49781633 </v>
   <v>       0.30375716       0.61431154       0.48860016 </v>
   <v>       0.69159044       0.30776058       0.49178433 </v>
   <v>       0.61097142       0.30763741       0.49679917 </v>
   <v>       0.69144699       0.38819719       0.50169901 </v>
   <v>       0.54869965       0.05075688       0.37729362 </v>
   <v>       0.94518085       0.45159228       0.37639614 </v>
   <v>       0.49919892       0.44758173       0.37965824 </v>
   <v>       0.50214355       0.05614288       0.61673333 </v>
   <v>       0.94517764       0.49817750       0.61685546 </v>
   <v>       0.54881741       0.50234724       0.61738679 </v>
   <v>       0.46828447       0.49858082       0.44045538 </v>
   <v>       0.49837996       0.53113315       0.55125798 </v>
   <v>       0.46911926       0.52895940       0.49487822 </v>
   <v>       0.27938009       0.64218860       0.49732034 </v>
   <v>       0.35632134       0.71892644       0.50317973 </v>
   <v>       0.35623532       0.64207197       0.49216481 </v>
   <v>       0.38547448       0.77678116       0.50444350 </v>
   <v>       0.36214409       0.80503020       0.52853387 </v>
   <v>       0.38983846       0.85948478       0.52847025 </v>
   <v>       0.44083636       0.88695632       0.50236878 </v>
   <v>       0.46384073       0.85847176       0.47772157 </v>
   <v>       0.43681964       0.80408802       0.47967124 </v>
   <v>       0.22159791       0.61332443       0.49697350 </v>
   <v>       0.19373552       0.63661077       0.52254508 </v>
   <v>       0.13940101       0.60908196       0.52322033 </v>
   <v>       0.11157495       0.55821114       0.49659088 </v>
   <v>       0.13963544       0.53535339       0.47006657 </v>
   <v>       0.19396640       0.56226582       0.47112996 </v>
   <v>       0.38524425       0.61318937       0.49096497 </v>
   <v>       0.36165890       0.56152825       0.46721992 </v>
   <v>       0.38916733       0.53455502       0.46730255 </v>
   <v>       0.44029559       0.55797457       0.49297814 </v>
   <v>       0.46357310       0.60957262       0.51722832 </v>
   <v>       0.43669223       0.63711240       0.51536697 </v>
   <v>       0.71598238       0.36023615       0.49665866 </v>
   <v>       0.63908197       0.28317772       0.49366721 </v>
   <v>       0.63893618       0.36016838       0.50001846 </v>
   <v>       0.61024702       0.22523224       0.49303629 </v>
   <v>       0.63657169       0.19741230       0.48065747 </v>
   <v>       0.60954420       0.14300333       0.48107626 </v>
   <v>       0.55577561       0.11532964       0.49489205 </v>
   <v>       0.52943453       0.14306036       0.50745749 </v>
   <v>       0.55631317       0.19744512       0.50605579 </v>
   <v>       0.77382967       0.38919367       0.49658551 </v>
   <v>       0.80162174       0.36289251       0.48389342 </v>
   <v>       0.85593571       0.39012244       0.48339725 </v>
   <v>       0.88353361       0.44405925       0.49659138 </v>
   <v>       0.85586259       0.47036003       0.50974462 </v>
   <v>       0.80154781       0.44325686       0.50924957 </v>
   <v>       0.60983976       0.38903748       0.50118569 </v>
   <v>       0.63601478       0.44320629       0.51309721 </v>
   <v>       0.60867839       0.47030952       0.51317932 </v>
   <v>       0.55474379       0.44389474       0.50041417 </v>
   <v>       0.52852650       0.38977296       0.48847006 </v>
   <v>       0.55573485       0.36256692       0.48928403 </v>
   <v>       0.52462158       0.02616133       0.44219033 </v>
   <v>       0.49860859       0.97173418       0.44377888 </v>
   <v>       0.97129985       0.47510986       0.44075105 </v>
   <v>       0.02563418       0.50071630       0.44039269 </v>
   <v>       0.49722881       0.47311651       0.44258323 </v>
   <v>       0.46986489       0.94475886       0.50049256 </v>
   <v>       0.46983873       0.97434066       0.55536352 </v>
   <v>       0.49900389       0.02870456       0.55324682 </v>
   <v>       0.52687966       0.05738927       0.49666255 </v>
   <v>       0.05385421       0.52928461       0.49656624 </v>
   <v>       0.02561272       0.52958125       0.55276312 </v>
   <v>       0.97128212       0.50080948       0.55246609 </v>
   <v>       0.94139907       0.47299938       0.49661779 </v>
   <v>       0.52420152       0.50251165       0.55285168 </v>
   <v>       0.52574715       0.47286212       0.49874795 </v>
  </varray>
 </structure>
 <calculation>
  <scstep>
   <time name="dav">  679.00  687.39</time>
   <time name="total">  679.27  687.66</time>
   <energy>
    <i name="alphaZ">     49.10251548 </i>
    <i name="ewald">  51595.17719784 </i>
    <i name="hartreedc"> -65977.01824832 </i>
    <i name="XCdc">   1484.83780386 </i>
    <i name="pawpsdc">  37216.54245287 </i>
    <i name="pawaedc"> -37297.54328894 </i>
    <i name="eentropy">     -0.00000000 </i>
    <i name="bandstr">  -5449.86907430 </i>
    <i name="atom">  17566.19360534 </i>
    <i name="e_fr_energy">   -812.57703617 </i>
    <i name="e_wo_entrp">   -812.57703617 </i>
    <i name="e_0_energy">   -812.57703617 </i>
   </energy>
  </scstep>
  <scstep>
   <time name="dav">  766.02  775.52</time>
   <time name="total">  766.02  775.52</time>
   <energy>
    <i name="e_fr_energy">   -813.11319140 </i>
    <i name="e_wo_entrp">   -813.11319140 </i>
    <i name="e_0_energy">   -813.11319140 </i>
   </energy>
  </scstep>
  <scstep>
   <time name="dav">  859.56  870.05</time>
   <time name="total">  859.56  870.05</time>
   <energy>
    <i name="e_fr_energy">   -813.12808875 </i>
    <i name="e_wo_entrp">   -813.12808875 </i>
    <i name="e_0_energy">   -813.12808875 </i>
   </energy>
  </scstep>
  <scstep>
   <time name="dav">  759.96  769.02</time>
   <time name="total">  759.96  769.02</time>
   <energy>
    <i name="e_fr_energy">   -813.12834330 </i>
    <i name="e_wo_entrp">   -813.12834330 </i>
    <i name="e_0_energy">   -813.12834330 </i>
   </energy>
  </scstep>
  <scstep>
   <time name="dav">  735.14  743.91</time>
   <time name="total">  735.14  743.91</time>
   <energy>
    <i name="e_fr_energy">   -813.12835544 </i>
    <i name="e_wo_entrp">   -813.12835544 </i>
    <i name="e_0_energy">   -813.12835544 </i>
   </energy>
  </scstep>
  <scstep>
   <time name="dav">  590.23  597.58</time>
   <time name="total">  590.24  597.59</time>
   <energy>
    <i name="alphaZ">     49.10251548 </i>
    <i name="ewald">  51595.17719784 </i>
    <i name="hartreedc"> -65977.01824832 </i>
    <i name="XCdc">   1484.83780386 </i>
    <i name="pawpsdc">  37216.54245287 </i>
    <i name="pawaedc"> -37297.54328894 </i>
    <i name="eentropy">     -0.00000000 </i>
    <i name="bandstr">  -5450.42039402 </i>
    <i name="atom">  17566.19360534 </i>
    <i name="e_fr_energy">   -813.12835589 </i>
    <i name="e_wo_entrp">   -813.12835589 </i>
    <i name="e_0_energy">   -813.12835589 </i>
   </energy>
  </scstep>
  <structure>
   <crystal>
    <varray name="basis" >
     <v>      29.51503406       0.03467726       0.00000000 </v>
     <v>     -14.72739618      25.52664150       0.00000000 </v>
     <v>       0.00000000       0.00000000      20.00000000 </v>
    </varray>
    <i name="volume">  15078.60797690 </i>
    <varray name="rec_basis" >
     <v>       0.03385809       0.01953416       0.00000000 </v>
     <v>      -0.00004600       0.03914822       0.00000000 </v>
     <v>       0.00000000       0.00000000       0.05000000 </v>
    </varray>
   </crystal>
   <varray name="positions" >
    <v>       0.53922526       0.08427364       0.35512089 </v>
    <v>       0.57562239       0.03471427       0.34954620 </v>
    <v>       0.91203689       0.46227772       0.35621006 </v>
    <v>       0.95964220       0.42395379       0.34705892 </v>
    <v>       0.54272120       0.45769268       0.35911506 </v>
    <v>       0.45682659       0.41891415       0.35167831 </v>
    <v>       0.46027853       0.04288329       0.64587308 </v>
    <v>       0.54611259       0.08896776       0.63661777 </v>
    <v>       0.95969285       0.54023700       0.64630546 </v>
    <v>       0.91201663       0.45438050       0.63698875 </v>
    <v>       0.57640837       0.54545782       0.64441600 </v>
    <v>       0.53906145       0.45940847       0.64005377 </v>
    <v>       0.44688208       0.49620912       0.39497620 </v>
    <v>       0.49967399       0.55345837       0.59536313 </v>
    <v>       0.11809577       0.62754662       0.54309021 </v>
    <v>       0.21537863       0.67645877       0.54177347 </v>
    <v>       0.11852131       0.49563747       0.45003696 </v>
    <v>       0.21578930       0.54417737       0.45207202 </v>
    <v>       0.32154074       0.54292442       0.44904949 </v>
    <v>       0.37041219       0.49432935       0.44902005 </v>
    <v>       0.45492598       0.67736361       0.53319890 </v>
    <v>       0.50348398       0.62847638       0.53645088 </v>
    <v>       0.45484267       0.78191485       0.46160663 </v>
    <v>       0.50364833       0.87932561       0.45815271 </v>
    <v>       0.37134267       0.88113500       0.54707862 </v>
    <v>       0.32209580       0.78370177       0.54698303 </v>
    <v>       0.87725655       0.36938589       0.47369132 </v>
    <v>       0.77992180       0.32090510       0.47451995 </v>
    <v>       0.87711035       0.51239567       0.51944577 </v>
    <v>       0.77977892       0.46349813       0.51861548 </v>
    <v>       0.67801514       0.46358473       0.52197093 </v>
    <v>       0.62938321       0.51245869       0.52204624 </v>
    <v>       0.53562200       0.32052657       0.48026839 </v>
    <v>       0.48650701       0.36892624       0.47906086 </v>
    <v>       0.53604568       0.21919778       0.51543031 </v>
    <v>       0.48753872       0.12174708       0.51770820 </v>
    <v>       0.63035895       0.12170827       0.47172292 </v>
    <v>       0.67845358       0.21915339       0.47097187 </v>
    <v>       0.49939159       0.95063862       0.39945254 </v>
    <v>       0.04568444       0.49990689       0.39504874 </v>
    <v>       0.44894527       0.95535678       0.60113920 </v>
    <v>       0.04564659       0.55043746       0.59810357 </v>
    <v>       0.30383438       0.69440676       0.50628549 </v>
    <v>       0.38432862       0.69447563       0.49781633 </v>
    <v>       0.30375716       0.61431154       0.48860016 </v>
    <v>       0.69159044       0.30776058       0.49178433 </v>
    <v>       0.61097142       0.30763741       0.49679917 </v>
    <v>       0.69144699       0.38819719       0.50169901 </v>
    <v>       0.54869965       0.05075688       0.37729362 </v>
    <v>       0.94518085       0.45159228       0.37639614 </v>
    <v>       0.49919892       0.44758173       0.37965824 </v>
    <v>       0.50214355       0.05614288       0.61673333 </v>
    <v>       0.94517764       0.49817750       0.61685546 </v>
    <v>       0.54881741       0.50234724       0.61738679 </v>
    <v>       0.46828447       0.49858082       0.44045538 </v>
    <v>       0.49837996       0.53113315       0.55125798 </v>
    <v>       0.46911926       0.52895940       0.49487822 </v>
    <v>       0.27938009       0.64218860       0.49732034 </v>
    <v>       0.35632134       0.71892644       0.50317973 </v>
    <v>       0.35623532       0.64207197       0.49216481 </v>
    <v>       0.38547448       0.77678116       0.50444350 </v>
    <v>       0.36214409       0.80503020       0.52853387 </v>
    <v>       0.38983846       0.85948478       0.52847025 </v>
    <v>       0.44083636       0.88695632       0.50236878 </v>
    <v>       0.46384073       0.85847176       0.47772157 </v>
    <v>       0.43681964       0.80408802       0.47967124 </v>
    <v>       0.22159791       0.61332443       0.49697350 </v>
    <v>       0.19373552       0.63661077       0.52254508 </v>
    <v>       0.13940101       0.60908196       0.52322033 </v>
    <v>       0.11157495       0.55821114       0.49659088 </v>
    <v>       0.13963544       0.53535339       0.47006657 </v>
    <v>       0.19396640       0.56226582       0.47112996 </v>
    <v>       0.38524425       0.61318937       0.49096497 </v>
    <v>       0.36165890       0.56152825       0.46721992 </v>
    <v>       0.38916733       0.53455502       0.46730255 </v>
    <v>       0.44029559       0.55797457       0.49297814 </v>
    <v>       0.46357310       0.60957262       0.51722832 </v>
    <v>       0.43669223       0.63711240       0.51536697 </v>
    <v>       0.71598238       0.36023615       0.49665866 </v>
    <v>       0.63908197       0.28317772       0.49366721 </v>
    <v>       0.63893618       0.36016838       0.50001846 </v>
    <v>       0.61024702       0.22523224       0.49303629 </v>
    <v>       0.63657169       0.19741230       0.48065747 </v>
    <v>       0.60954420       0.14300333       0.48107626 </v>
    <v>       0.55577561       0.11532964       0.49489205 </v>
    <v>       0.52943453       0.14306036       0.50745749 </v>
    <v>       0.55631317       0.19744512       0.50605579 </v>
    <v>       0.77382967       0.38919367       0.49658551 </v>
    <v>       0.80162174       0.36289251       0.48389342 </v>
    <v>       0.85593571       0.39012244       0.48339725 </v>
    <v>       0.88353361       0.44405925       0.49659138 </v>
    <v>       0.85586259       0.47036003       0.50974462 </v>
    <v>       0.80154781       0.44325686       0.50924957 </v>
    <v>       0.60983976       0.38903748       0.50118569 </v>
    <v>       0.63601478       0.44320629       0.51309721 </v>
    <v>       0.60867839       0.47030952       0.51317932 </v>
    <v>       0.55474379       0.44389474       0.50041417 </v>
    <v>       0.52852650       0.38977296       0.48847006 </v>
    <v>       0.55573485       0.36256692       0.48928403 </v>
    <v>       0.52462158       0.02616133       0.44219033 </v>
    <v>       0.49860859       0.97173418       0.44377888 </v>
    <v>       0.97129985       0.47510986       0.44075105 </v>
    <v>       0.02563418       0.50071630       0.44039269 </v>
    <v>       0.49722881       0.47311651       0.44258323 </v>
    <v>       0.46986489       0.94475886       0.50049256 </v>
    <v>       0.46983873       0.97434066       0.55536352 </v>
    <v>       0.49900389       0.02870456       0.55324682 </v>
    <v>       0.52687966       0.05738927       0.49666255 </v>
    <v>       0.05385421       0.52928461       0.49656624 </v>
    <v>       0.02561272       0.52958125       0.55276312 </v>
    <v>       0.97128212       0.50080948       0.55246609 </v>
    <v>       0.94139907       0.47299938       0.49661779 </v>
    <v>       0.52420152       0.50251165       0.55285168 </v>
    <v>       0.52574715       0.47286212       0.49874795 </v>
   </varray>
  </structure>
  <varray name="forces" >
   <v>      -0.00450135      -0.00081623      -0.00137270 </v>
   <v>       0.00061952      -0.00169245      -0.00333918 </v>
   <v>       0.00545969      -0.00071711      -0.00210423 </v>
   <v>       0.00513418      -0.00602214      -0.00674414 </v>
   <v>      -0.00225048      -0.00050754      -0.00387864 </v>
   <v>      -0.00407331      -0.00230605      -0.00546153 </v>
   <v>       0.00962279       0.00021738      -0.00299984 </v>
   <v>      -0.00004960      -0.00594161      -0.00213483 </v>
   <v>       0.00394581      -0.00027564      -0.00070567 </v>
   <v>       0.00371728      -0.00707536       0.00503648 </v>
   <v>      -0.00342783      -0.00560594       0.00201335 </v>
   <v>      -0.00328912       0.00241233       0.00723785 </v>
   <v>      -0.00253752       0.00053889      -0.00293063 </v>
   <v>      -0.00018512       0.00069174      -0.00185355 </v>
   <v>      -0.00190799      -0.00029328       0.00057384 </v>
   <v>      -0.00223597       0.00117451       0.00079753 </v>
   <v>      -0.00053634       0.00185507       0.00193724 </v>
   <v>       0.00077171      -0.00081386      -0.00051028 </v>
   <v>      -0.00038294      -0.00107400      -0.00010907 </v>
   <v>      -0.00058847      -0.00035710       0.00071805 </v>
   <v>      -0.00090362       0.00357792      -0.00158271 </v>
   <v>      -0.00227182       0.00193134      -0.00226635 </v>
   <v>       0.00149784      -0.00157253       0.00156520 </v>
   <v>       0.00069739      -0.00139464       0.00236468 </v>
   <v>      -0.00147008      -0.00108299      -0.00003669 </v>
   <v>       0.00369462      -0.00056337      -0.00047206 </v>
   <v>      -0.00185356      -0.00128579       0.00083713 </v>
   <v>       0.00045251      -0.00155383       0.00086404 </v>
   <v>       0.00024072      -0.00045680      -0.00044718 </v>
   <v>       0.00019008       0.00148404       0.00111486 </v>
   <v>      -0.00278361      -0.00073460      -0.00182041 </v>
   <v>      -0.00047397       0.00182074      -0.00218855 </v>
   <v>      -0.00123483      -0.00129481       0.00330500 </v>
   <v>      -0.00001112      -0.00193660       0.00271272 </v>
   <v>       0.00047875       0.00144257      -0.00221900 </v>
   <v>      -0.00223441       0.00245799      -0.00258921 </v>
   <v>      -0.00048186      -0.00118045       0.00093050 </v>
   <v>       0.00074613      -0.00017148       0.00184998 </v>
   <v>      -0.00264041      -0.00017539       0.00099008 </v>
   <v>       0.00048609      -0.00137491       0.00104486 </v>
   <v>       0.00020337      -0.00305750       0.00129048 </v>
   <v>       0.00070066       0.00251172      -0.00037491 </v>
   <v>      -0.00085313      -0.00034043      -0.00248323 </v>
   <v>      -0.00064837      -0.00128968      -0.00114752 </v>
   <v>      -0.00702696       0.00368859      -0.00234427 </v>
   <v>      -0.00179030      -0.00250314      -0.00006822 </v>
   <v>       0.00386964      -0.00063608      -0.00042253 </v>
   <v>      -0.00091029      -0.00065647       0.00085744 </v>
   <v>      -0.00232846       0.00142998       0.00530448 </v>
   <v>      -0.00649481       0.00693959       0.00540237 </v>
   <v>      -0.00295146      -0.00408304      -0.00333613 </v>
   <v>      -0.00592328       0.00139674       0.00213710 </v>
   <v>       0.00357602       0.01070957       0.00175347 </v>
   <v>      -0.00027306       0.00493429      -0.00660773 </v>
   <v>      -0.00244777       0.00231304      -0.00284270 </v>
   <v>       0.00536962       0.00070958       0.00163253 </v>
   <v>      -0.00195914       0.00240360       0.00087484 </v>
   <v>       0.00733800       0.00063920      -0.00273120 </v>
   <v>       0.00292283      -0.00278163      -0.00004301 </v>
   <v>      -0.00293735       0.00299668       0.00058519 </v>
   <v>      -0.00093526       0.00027636       0.00086510 </v>
   <v>      -0.00228829       0.00121366       0.00036099 </v>
   <v>       0.00090873       0.00090476      -0.00181951 </v>
   <v>      -0.00026962      -0.00077047       0.00179430 </v>
   <v>      -0.00158713       0.00484428       0.00161942 </v>
   <v>       0.00081870      -0.00220270       0.00098078 </v>
   <v>       0.00249593       0.00072540       0.00170234 </v>
   <v>      -0.00215366      -0.00208372       0.00019460 </v>
   <v>       0.00003681      -0.00150937      -0.00047362 </v>
   <v>       0.00006203       0.00031261       0.00076612 </v>
   <v>      -0.00425807      -0.00001915       0.00142661 </v>
   <v>      -0.00145955      -0.00254510      -0.00010041 </v>
   <v>      -0.00229622       0.00375148       0.00171776 </v>
   <v>       0.00132239      -0.00406404      -0.00029552 </v>
   <v>       0.00077951      -0.00057225       0.00094705 </v>
   <v>      -0.00255964      -0.00143432      -0.00058887 </v>
   <v>       0.00218738      -0.00079212      -0.00002011 </v>
   <v>       0.00542255      -0.00257583      -0.00054902 </v>
   <v>       0.00299138       0.00160707       0.00128936 </v>
   <v>      -0.00137362      -0.00076099      -0.00039911 </v>
   <v>      -0.00504662       0.00370642      -0.00156906 </v>
   <v>      -0.00158543      -0.00002887      -0.00092891 </v>
   <v>       0.00076194      -0.00216092      -0.00008534 </v>
   <v>      -0.00181893      -0.00176527       0.00168671 </v>
   <v>      -0.00035798      -0.00109557       0.00080994 </v>
   <v>      -0.00321822      -0.00365978       0.00055407 </v>
   <v>      -0.00081442       0.00431199      -0.00177065 </v>
   <v>       0.00604891      -0.00237960      -0.00181721 </v>
   <v>      -0.00045154       0.00147668      -0.00017614 </v>
   <v>      -0.00084119      -0.00276130       0.00123070 </v>
   <v>       0.00233253       0.00286744       0.00166192 </v>
   <v>      -0.00473557      -0.00180395       0.00136848 </v>
   <v>      -0.00351068       0.00028768      -0.00074084 </v>
   <v>      -0.00116548      -0.00173465      -0.00186605 </v>
   <v>       0.00151204       0.00272971      -0.00078310 </v>
   <v>       0.00318236      -0.00198981      -0.00094243 </v>
   <v>       0.00020227       0.00635304      -0.00119793 </v>
   <v>       0.00064979      -0.00363867       0.00182237 </v>
   <v>       0.00501170      -0.00080725       0.00274301 </v>
   <v>       0.00361693       0.00251873       0.00292498 </v>
   <v>       0.00427549       0.00316730      -0.00026251 </v>
   <v>       0.00077098       0.00061972      -0.00130499 </v>
   <v>      -0.00062354      -0.00112013       0.00188719 </v>
   <v>       0.00085371      -0.00009126      -0.00363258 </v>
   <v>       0.00185089      -0.00153055       0.00375698 </v>
   <v>       0.00023520      -0.00271830       0.00054941 </v>
   <v>       0.00413012       0.00284695      -0.00009783 </v>
   <v>       0.00473391       0.00232988       0.00142786 </v>
   <v>       0.00104193       0.00288978       0.00128076 </v>
   <v>      -0.00267312      -0.00243063       0.00046969 </v>
   <v>       0.00199041      -0.00370896      -0.00094169 </v>
   <v>       0.00081018       0.00162751      -0.00324846 </v>
   <v>       0.00283936       0.00263064       0.00032566 </v>
   <v>      -0.00071781       0.00410379       0.00188437 </v>
  </varray>
  <varray name="stress" >
   <v>      -0.00164793      -0.00067056      -0.00833255 </v>
   <v>      -0.00067057       0.00219011       0.02619925 </v>
   <v>      -0.00833255       0.02619926      -0.18382553 </v>
  </varray>
  <energy>
   <i name="e_fr_energy">   -815.61918428 </i>
   <i name="e_wo_entrp">   -815.61918428 </i>
   <i name="e_0_energy">     -0.00000000 </i>
  </energy>
  <time name="totalsc"> 5178.01 5243.78</time>
  <eigenvalues>
   <array>
    <dimension dim="1">band</dimension>
    <dimension dim="2">kpoint</dimension>
    <dimension dim="3">spin</dimension>
    <field>eigene</field>
    <field>occ</field>
    <set>
     <set comment="spin 1">
      <set comment="kpoint 1">
       <r>  -30.9239    1.0000 </r>
       <r>  -30.9231    1.0000 </r>
       <r>  -30.9208    1.0000 </r>
       <r>  -30.9189    1.0000 </r>
       <r>  -30.9186    1.0000 </r>
       <r>  -30.9169    1.0000 </r>
       <r>  -26.5602    1.0000 </r>
       <r>  -26.5600    1.0000 </r>
       <r>  -26.5568    1.0000 </r>
       <r>  -26.5565    1.0000 </r>
       <r>  -26.5558    1.0000 </r>
       <r>  -26.5548    1.0000 </r>
       <r>  -25.7058    1.0000 </r>
       <r>  -25.3478    1.0000 </r>
       <r>  -22.9442    1.0000 </r>
       <r>  -22.9420    1.0000 </r>
       <r>  -22.9356    1.0000 </r>
       <r>  -22.7839    1.0000 </r>
       <r>  -22.7824    1.0000 </r>
       <r>  -22.4306    1.0000 </r>
       <r>  -22.4290    1.0000 </r>
       <r>  -21.8758    1.0000 </r>
       <r>  -21.8121    1.0000 </r>
       <r>  -21.8076    1.0000 </r>
       <r>  -21.4485    1.0000 </r>
       <r>  -21.3821    1.0000 </r>
       <r>  -21.3786    1.0000 </r>
       <r>  -20.8041    1.0000 </r>
       <r>  -20.8010    1.0000 </r>
       <r>  -20.7981    1.0000 </r>
       <r>  -20.4801    1.0000 </r>
       <r>  -20.4751    1.0000 </r>
       <r>  -20.4689    1.0000 </r>
       <r>  -19.4249    1.0000 </r>
       <r>  -19.4167    1.0000 </r>
       <r>  -19.2604    1.0000 </r>
       <r>  -18.9704    1.0000 </r>
       <r>  -18.9615    1.0000 </r>
       <r>  -18.8911    1.0000 </r>
       <r>  -18.8187    1.0000 </r>
       <r>  -18.8172    1.0000 </r>
       <r>  -18.6871    1.0000 </r>
       <r>  -18.5696    1.0000 </r>
       <r>  -18.5553    1.0000 </r>
       <r>  -18.5539    1.0000 </r>
       <r>  -17.9682    1.0000 </r>
       <r>  -17.9661    1.0000 </r>
       <r>  -17.7838    1.0000 </r>
       <r>  -17.5762    1.0000 </r>
       <r>  -17.5748    1.0000 </r>
       <r>  -17.5697    1.0000 </r>
       <r>  -17.2936    1.0000 </r>
       <r>  -17.2868    1.0000 </r>
       <r>  -16.5808    1.0000 </r>
       <r>  -16.5757    1.0000 </r>
       <r>  -16.4618    1.0000 </r>
       <r>  -15.6089    1.0000 </r>
       <r>  -15.5993    1.0000 </r>
       <r>  -15.5744    1.0000 </r>
       <r>  -15.3767    1.0000 </r>
       <r>  -15.3367    1.0000 </r>
       <r>  -15.2448    1.0000 </r>
       <r>  -15.2366    1.0000 </r>
       <r>  -15.0929    1.0000 </r>
       <r>  -15.0866    1.0000 </r>
       <r>  -14.6663    1.0000 </r>
       <r>  -14.5918    1.0000 </r>
       <r>  -14.5502    1.0000 </r>
       <r>  -14.5476    1.0000 </r>
       <r>  -14.4663    1.0000 </r>
       <r>  -14.4638    1.0000 </r>
       <r>  -14.3373    1.0000 </r>
       <r>  -14.3345    1.0000 </r>
       <r>  -13.8044    1.0000 </r>
       <r>  -13.8009    1.0000 </r>
       <r>  -13.7784    1.0000 </r>
       <r>  -13.7769    1.0000 </r>
       <r>  -13.6017    1.0000 </r>
       <r>  -13.6001    1.0000 </r>
       <r>  -13.5783    1.0000 </r>
       <r>  -13.5546    1.0000 </r>
       <r>  -13.3303    1.0000 </r>
       <r>  -13.2371    1.0000 </r>
       <r>  -13.1579    1.0000 </r>
       <r>  -13.1576    1.0000 </r>
       <r>  -13.0898    1.0000 </r>
       <r>  -12.9719    1.0000 </r>
       <r>  -12.9692    1.0000 </r>
       <r>  -12.9188    1.0000 </r>
       <r>  -12.9176    1.0000 </r>
       <r>  -12.8824    1.0000 </r>
       <r>  -12.7058    1.0000 </r>
       <r>  -12.7034    1.0000 </r>
       <r>  -12.7026    1.0000 </r>
       <r>  -12.6981    1.0000 </r>
       <r>  -12.6704    1.0000 </r>
       <r>  -12.6688    1.0000 </r>
       <r>  -12.4844    1.0000 </r>
       <r>  -12.4470    1.0000 </r>
       <r>  -12.4460    1.0000 </r>
       <r>  -12.0018    1.0000 </r>
       <r>  -11.9127    1.0000 </r>
       <r>  -11.9032    1.0000 </r>
       <r>  -11.8564    1.0000 </r>
       <r>  -11.8343    1.0000 </r>
       <r>  -11.8221    1.0000 </r>
       <r>  -11.5923    1.0000 </r>
       <r>  -11.4872    1.0000 </r>
       <r>  -11.4835    1.0000 </r>
       <r>  -11.2864    1.0000 </r>
       <r>  -11.2755    1.0000 </r>
       <r>  -11.2272    1.0000 </r>
       <r>  -11.2262    1.0000 </r>
       <r>  -11.2067    1.0000 </r>
       <r>  -11.1597    1.0000 </r>
       <r>  -11.1266    1.0000 </r>
       <r>  -10.9941    1.0000 </r>
       <r>  -10.9834    1.0000 </r>
       <r>  -10.9752    1.0000 </r>
       <r>  -10.8510    1.0000 </r>
       <r>  -10.5983    1.0000 </r>
       <r>  -10.5942    1.0000 </r>
       <r>  -10.5454    1.0000 </r>
       <r>  -10.5102    1.0000 </r>
       <r>  -10.4045    1.0000 </r>
       <r>  -10.4001    1.0000 </r>
       <r>  -10.2676    1.0000 </r>
       <r>  -10.2664    1.0000 </r>
       <r>  -10.2250    1.0000 </r>
       <r>  -10.0968    1.0000 </r>
       <r>  -10.0759    1.0000 </r>
       <r>  -10.0640    1.0000 </r>
       <r>  -10.0502    1.0000 </r>
       <r>  -10.0404    1.0000 </r>
       <r>  -10.0091    1.0000 </r>
       <r>   -9.8696    1.0000 </r>
       <r>   -9.8683    1.0000 </r>
       <r>   -9.7859    1.0000 </r>
       <r>   -9.7593    1.0000 </r>
       <r>   -9.4354    1.0000 </r>
       <r>   -9.4260    1.0000 </r>
       <r>   -9.4157    1.0000 </r>
       <r>   -9.2117    1.0000 </r>
       <r>   -9.0155    1.0000 </r>
       <r>   -8.9954    1.0000 </r>
       <r>   -8.8868    1.0000 </r>
       <r>   -8.8857    1.0000 </r>
       <r>   -8.8765    1.0000 </r>
       <r>   -8.6289    1.0000 </r>
       <r>   -8.6133    1.0000 </r>
       <r>   -8.6003    1.0000 </r>
       <r>   -8.5730    1.0000 </r>
       <r>   -8.5679    1.0000 </r>
       <r>   -8.5667    1.0000 </r>
       <r>   -8.5443    1.0000 </r>
       <r>   -8.4997    1.0000 </r>
       <r>   -8.3330    1.0000 </r>
       <r>   -8.3228    1.0000 </r>
       <r>   -8.2479    1.0000 </r>
       <r>   -8.2369    1.0000 </r>
       <r>   -8.2222    1.0000 </r>
       <r>   -7.8711    1.0000 </r>
       <r>   -7.8704    1.0000 </r>
       <r>   -7.8691    1.0000 </r>
       <r>   -7.8009    1.0000 </r>
       <r>   -7.7986    1.0000 </r>
       <r>   -7.7968    1.0000 </r>
       <r>   -7.7954    1.0000 </r>
       <r>   -7.7067    1.0000 </r>
       <r>   -7.7048    1.0000 </r>
       <r>   -7.7033    1.0000 </r>
       <r>   -7.5401    1.0000 </r>
       <r>   -7.5328    1.0000 </r>
       <r>   -7.3438    1.0000 </r>
       <r>   -7.3431    1.0000 </r>
       <r>   -7.3417    1.0000 </r>
       <r>   -7.1387    1.0000 </r>
       <r>   -7.1253    1.0000 </r>
       <r>   -7.1227    1.0000 </r>
       <r>   -6.7820    1.0000 </r>
       <r>   -6.7729    1.0000 </r>
       <r>   -6.7703    1.0000 </r>
       <r>   -6.7535    1.0000 </r>
       <r>   -6.7218    1.0000 </r>
       <r>   -6.7212    1.0000 </r>
       <r>   -6.5749    1.0000 </r>
       <r>   -6.5735    1.0000 </r>
       <r>   -6.5732    1.0000 </r>
       <r>   -6.4541    1.0000 </r>
       <r>   -6.4303    1.0000 </r>
       <r>   -6.4270    1.0000 </r>
       <r>   -6.4036    1.0000 </r>
       <r>   -6.3763    1.0000 </r>
       <r>   -6.3539    1.0000 </r>
       <r>   -6.2470    1.0000 </r>
       <r>   -6.2195    1.0000 </r>
       <r>   -6.0738    1.0000 </r>
       <r>   -6.0051    1.0000 </r>
       <r>   -6.0026    1.0000 </r>
       <r>   -5.9004    1.0000 </r>
       <r>   -5.8917    1.0000 </r>
       <r>   -3.4849    0.0000 </r>
       <r>   -3.4822    0.0000 </r>
       <r>   -3.4818    0.0000 </r>
       <r>   -3.4205    0.0000 </r>
       <r>   -3.4173    0.0000 </r>
       <r>   -3.3863    0.0000 </r>
       <r>   -3.1494    0.0000 </r>
       <r>   -3.1463    0.0000 </r>
       <r>   -2.7577    0.0000 </r>
       <r>   -2.7564    0.0000 </r>
       <r>   -2.5509    0.0000 </r>
       <r>   -1.8943    0.0000 </r>
       <r>   -1.8854    0.0000 </r>
       <r>   -1.8122    0.0000 </r>
       <r>   -1.8103    0.0000 </r>
       <r>   -1.8088    0.0000 </r>
       <r>   -1.7132    0.0000 </r>
       <r>   -1.6222    0.0000 </r>
       <r>   -1.5877    0.0000 </r>
       <r>   -1.5865    0.0000 </r>
       <r>   -1.2458    0.0000 </r>
       <r>   -1.2368    0.0000 </r>
       <r>   -1.2352    0.0000 </r>
       <r>   -1.0765    0.0000 </r>
       <r>   -0.5613    0.0000 </r>
       <r>   -0.5242    0.0000 </r>
       <r>   -0.4896    0.0000 </r>
       <r>   -0.3291    0.0000 </r>
       <r>   -0.3220    0.0000 </r>
       <r>   -0.2088    0.0000 </r>
       <r>   -0.1843    0.0000 </r>
       <r>   -0.1798    0.0000 </r>
       <r>   -0.0910    0.0000 </r>
       <r>   -0.0501    0.0000 </r>
       <r>    0.1202    0.0000 </r>
       <r>    0.1774    0.0000 </r>
       <r>    0.1833    0.0000 </r>
       <r>    0.1854    0.0000 </r>
       <r>    0.2496    0.0000 </r>
       <r>    0.2737    0.0000 </r>
       <r>    0.3051    0.0000 </r>
       <r>    0.3261    0.0000 </r>
       <r>    0.3268    0.0000 </r>
       <r>    0.4027    0.0000 </r>
       <r>    0.4375    0.0000 </r>
       <r>    0.4898    0.0000 </r>
       <r>    0.5115    0.0000 </r>
       <r>    0.5476    0.0000 </r>
       <r>    0.5541    0.0000 </r>
       <r>    0.6148    0.0000 </r>
       <r>    0.6702    0.0000 </r>
       <r>    0.7409    0.0000 </r>
       <r>    0.7863    0.0000 </r>
       <r>    0.7970    0.0000 </r>
       <r>    0.8019    0.0000 </r>
       <r>    0.8166    0.0000 </r>
       <r>    0.8765    0.0000 </r>
       <r>    0.8883    0.0000 </r>
       <r>    0.8974    0.0000 </r>
       <r>    0.9062    0.0000 </r>
       <r>    0.9399    0.0000 </r>
       <r>    0.9591    0.0000 </r>
       <r>    0.9937    0.0000 </r>
       <r>    0.9966    0.0000 </r>
       <r>    1.0088    0.0000 </r>
       <r>    1.0338    0.0000 </r>
       <r>    1.0449    0.0000 </r>
       <r>    1.0485    0.0000 </r>
       <r>    1.0641    0.0000 </r>
       <r>    1.0874    0.0000 </r>
       <r>    1.1013    0.0000 </r>
      </set>
      <set comment="kpoint 2">
       <r>  -30.9239    1.0000 </r>
       <r>  -30.9231    1.0000 </r>
       <r>  -30.9208    1.0000 </r>
       <r>  -30.9189    1.0000 </r>
       <r>  -30.9186    1.0000 </r>
       <r>  -30.9169    1.0000 </r>
       <r>  -26.5602    1.0000 </r>
       <r>  -26.5600    1.0000 </r>
       <r>  -26.5568    1.0000 </r>
       <r>  -26.5565    1.0000 </r>
       <r>  -26.5558    1.0000 </r>
       <r>  -26.5548    1.0000 </r>
       <r>  -25.7058    1.0000 </r>
       <r>  -25.3478    1.0000 </r>
       <r>  -22.9442    1.0000 </r>
       <r>  -22.9420    1.0000 </r>
       <r>  -22.9356    1.0000 </r>
       <r>  -22.7839    1.0000 </r>
       <r>  -22.7824    1.0000 </r>
       <r>  -22.4306    1.0000 </r>
       <r>  -22.4290    1.0000 </r>
       <r>  -21.8758    1.0000 </r>
       <r>  -21.8121    1.0000 </r>
       <r>  -21.8077    1.0000 </r>
       <r>  -21.4484    1.0000 </r>
       <r>  -21.3821    1.0000 </r>
       <r>  -21.3787    1.0000 </r>
       <r>  -20.8041    1.0000 </r>
       <r>  -20.8010    1.0000 </r>
       <r>  -20.7981    1.0000 </r>
       <r>  -20.4801    1.0000 </r>
       <r>  -20.4751    1.0000 </r>
       <r>  -20.4689    1.0000 </r>
       <r>  -19.4249    1.0000 </r>
       <r>  -19.4166    1.0000 </r>
       <r>  -19.2608    1.0000 </r>
       <r>  -18.9704    1.0000 </r>
       <r>  -18.9612    1.0000 </r>
       <r>  -18.8911    1.0000 </r>
       <r>  -18.8187    1.0000 </r>
       <r>  -18.8172    1.0000 </r>
       <r>  -18.6873    1.0000 </r>
       <r>  -18.5696    1.0000 </r>
       <r>  -18.5553    1.0000 </r>
       <r>  -18.5539    1.0000 </r>
       <r>  -17.9682    1.0000 </r>
       <r>  -17.9661    1.0000 </r>
       <r>  -17.7840    1.0000 </r>
       <r>  -17.5762    1.0000 </r>
       <r>  -17.5748    1.0000 </r>
       <r>  -17.5697    1.0000 </r>
       <r>  -17.2936    1.0000 </r>
       <r>  -17.2864    1.0000 </r>
       <r>  -16.5808    1.0000 </r>
       <r>  -16.5797    1.0000 </r>
       <r>  -16.4576    1.0000 </r>
       <r>  -15.6089    1.0000 </r>
       <r>  -15.6012    1.0000 </r>
       <r>  -15.5744    1.0000 </r>
       <r>  -15.3757    1.0000 </r>
       <r>  -15.3367    1.0000 </r>
       <r>  -15.2441    1.0000 </r>
       <r>  -15.2366    1.0000 </r>
       <r>  -15.0928    1.0000 </r>
       <r>  -15.0866    1.0000 </r>
       <r>  -14.6670    1.0000 </r>
       <r>  -14.5918    1.0000 </r>
       <r>  -14.5503    1.0000 </r>
       <r>  -14.5476    1.0000 </r>
       <r>  -14.4661    1.0000 </r>
       <r>  -14.4633    1.0000 </r>
       <r>  -14.3374    1.0000 </r>
       <r>  -14.3346    1.0000 </r>
       <r>  -13.8044    1.0000 </r>
       <r>  -13.8007    1.0000 </r>
       <r>  -13.7784    1.0000 </r>
       <r>  -13.7769    1.0000 </r>
       <r>  -13.6024    1.0000 </r>
       <r>  -13.6001    1.0000 </r>
       <r>  -13.5783    1.0000 </r>
       <r>  -13.5540    1.0000 </r>
       <r>  -13.3303    1.0000 </r>
       <r>  -13.2372    1.0000 </r>
       <r>  -13.1579    1.0000 </r>
       <r>  -13.1576    1.0000 </r>
       <r>  -13.0900    1.0000 </r>
       <r>  -12.9719    1.0000 </r>
       <r>  -12.9689    1.0000 </r>
       <r>  -12.9188    1.0000 </r>
       <r>  -12.9176    1.0000 </r>
       <r>  -12.8824    1.0000 </r>
       <r>  -12.7061    1.0000 </r>
       <r>  -12.7034    1.0000 </r>
       <r>  -12.7025    1.0000 </r>
       <r>  -12.6981    1.0000 </r>
       <r>  -12.6704    1.0000 </r>
       <r>  -12.6683    1.0000 </r>
       <r>  -12.4844    1.0000 </r>
       <r>  -12.4470    1.0000 </r>
       <r>  -12.4460    1.0000 </r>
       <r>  -12.0042    1.0000 </r>
       <r>  -11.9129    1.0000 </r>
       <r>  -11.9025    1.0000 </r>
       <r>  -11.8564    1.0000 </r>
       <r>  -11.8327    1.0000 </r>
       <r>  -11.8218    1.0000 </r>
       <r>  -11.5923    1.0000 </r>
       <r>  -11.4873    1.0000 </r>
       <r>  -11.4838    1.0000 </r>
       <r>  -11.2864    1.0000 </r>
       <r>  -11.2755    1.0000 </r>
       <r>  -11.2276    1.0000 </r>
       <r>  -11.2262    1.0000 </r>
       <r>  -11.2061    1.0000 </r>
       <r>  -11.1598    1.0000 </r>
       <r>  -11.1266    1.0000 </r>
       <r>  -10.9941    1.0000 </r>
       <r>  -10.9838    1.0000 </r>
       <r>  -10.9752    1.0000 </r>
       <r>  -10.8507    1.0000 </r>
       <r>  -10.5983    1.0000 </r>
       <r>  -10.5943    1.0000 </r>
       <r>  -10.5454    1.0000 </r>
       <r>  -10.5126    1.0000 </r>
       <r>  -10.4019    1.0000 </r>
       <r>  -10.4000    1.0000 </r>
       <r>  -10.2675    1.0000 </r>
       <r>  -10.2663    1.0000 </r>
       <r>  -10.2249    1.0000 </r>
       <r>  -10.0968    1.0000 </r>
       <r>  -10.0763    1.0000 </r>
       <r>  -10.0638    1.0000 </r>
       <r>  -10.0502    1.0000 </r>
       <r>  -10.0404    1.0000 </r>
       <r>  -10.0092    1.0000 </r>
       <r>   -9.8700    1.0000 </r>
       <r>   -9.8684    1.0000 </r>
       <r>   -9.7858    1.0000 </r>
       <r>   -9.7592    1.0000 </r>
       <r>   -9.4354    1.0000 </r>
       <r>   -9.4291    1.0000 </r>
       <r>   -9.4126    1.0000 </r>
       <r>   -9.2115    1.0000 </r>
       <r>   -9.0157    1.0000 </r>
       <r>   -8.9954    1.0000 </r>
       <r>   -8.8883    1.0000 </r>
       <r>   -8.8866    1.0000 </r>
       <r>   -8.8743    1.0000 </r>
       <r>   -8.6289    1.0000 </r>
       <r>   -8.6131    1.0000 </r>
       <r>   -8.6003    1.0000 </r>
       <r>   -8.5734    1.0000 </r>
       <r>   -8.5679    1.0000 </r>
       <r>   -8.5662    1.0000 </r>
       <r>   -8.5443    1.0000 </r>
[...]
       <r>   -26.1766     0.0000    24.0000 </r>
       <r>   -26.0590     0.0000    24.0000 </r>
       <r>   -25.9413     0.0000    24.0000 </r>
       <r>   -25.8237     0.0000    24.0000 </r>
       <r>   -25.7061     8.2353    24.9686 </r>
       <r>   -25.5885     0.0000    26.0000 </r>
       <r>   -25.4709     0.0000    26.0000 </r>
       <r>   -25.3533     3.7520    26.4413 </r>
       <r>   -25.2357     0.0000    28.0000 </r>
       <r>   -25.1180     0.0000    28.0000 </r>
       <r>   -25.0004     0.0000    28.0000 </r>
       <r>   -24.8828     0.0000    28.0000 </r>
       <r>   -24.7652     0.0000    28.0000 </r>
       <r>   -24.6476     0.0000    28.0000 </r>
       <r>   -24.5300     0.0000    28.0000 </r>
       <r>   -24.4124     0.0000    28.0000 </r>
       <r>   -24.2947     0.0000    28.0000 </r>
       <r>   -24.1771     0.0000    28.0000 </r>
       <r>   -24.0595     0.0000    28.0000 </r>
       <r>   -23.9419     0.0000    28.0000 </r>
       <r>   -23.8243     0.0000    28.0000 </r>
       <r>   -23.7067     0.0000    28.0000 </r>
       <r>   -23.5890     0.0000    28.0000 </r>
       <r>   -23.4714     0.0000    28.0000 </r>
       <r>   -23.3538     0.0000    28.0000 </r>
       <r>   -23.2362     0.0000    28.0000 </r>
       <r>   -23.1186     0.0000    28.0000 </r>
       <r>   -23.0010     0.0000    28.0000 </r>
       <r>   -22.8834    51.0139    34.0000 </r>
       <r>   -22.7657    33.7589    37.9706 </r>
       <r>   -22.6481     0.0000    38.0000 </r>
       <r>   -22.5305     0.0000    38.0000 </r>
       <r>   -22.4129    33.7231    41.9663 </r>
       <r>   -22.2953     0.0000    42.0000 </r>
       <r>   -22.1777     0.0000    42.0000 </r>
       <r>   -22.0601     0.0000    42.0000 </r>
       <r>   -21.9424     0.0000    42.0000 </r>
       <r>   -21.8248    19.4537    44.2881 </r>
       <r>   -21.7072     0.0000    48.0000 </r>
       <r>   -21.5896     0.0000    48.0000 </r>
       <r>   -21.4720     0.0014    48.0002 </r>
       <r>   -21.3544    34.0070    53.9997 </r>
       <r>   -21.2367     0.0000    54.0000 </r>
       <r>   -21.1191     0.0000    54.0000 </r>
       <r>   -21.0015     0.0000    54.0000 </r>
       <r>   -20.8839     0.0000    54.0000 </r>
       <r>   -20.7663    51.0138    60.0000 </r>
       <r>   -20.6487     0.0000    60.0000 </r>
       <r>   -20.5311     0.0000    60.0000 </r>
       <r>   -20.4134    51.0139    66.0000 </r>
       <r>   -20.2958     0.0000    66.0000 </r>
       <r>   -20.1782     0.0000    66.0000 </r>
       <r>   -20.0606     0.0000    66.0000 </r>
       <r>   -19.9430     0.0000    66.0000 </r>
       <r>   -19.8254     0.0000    66.0000 </r>
       <r>   -19.7077     0.0000    66.0000 </r>
       <r>   -19.5901     0.0000    66.0000 </r>
       <r>   -19.4725     0.0000    66.0000 </r>
       <r>   -19.3549    33.8453    69.9807 </r>
       <r>   -19.2373     8.2182    71.9999 </r>
       <r>   -19.1197     0.0000    72.0000 </r>
       <r>   -19.0021     0.0001    72.0000 </r>
       <r>   -18.8844    31.0767    77.6551 </r>
       <r>   -18.7668    33.9773    81.9962 </r>
       <r>   -18.6492     8.7857    84.0000 </r>
       <r>   -18.5316    50.9827    89.9963 </r>
       <r>   -18.4140     0.0000    90.0000 </r>
       <r>   -18.2964     0.0000    90.0000 </r>
       <r>   -18.1788     0.0000    90.0000 </r>
       <r>   -18.0611     0.0000    90.0000 </r>
       <r>   -17.9435    33.9399    93.9918 </r>
       <r>   -17.8259     0.1194    94.0140 </r>
       <r>   -17.7083     3.1175    96.0000 </r>
       <r>   -17.5907     0.3802    96.0447 </r>
       <r>   -17.4731     0.0000   102.0000 </r>
       <r>   -17.3554     0.0000   102.0000 </r>
       <r>   -17.2378    23.4417   104.7571 </r>
       <r>   -17.1202     1.9839   106.0000 </r>
       <r>   -17.0026     0.0000   106.0000 </r>
       <r>   -16.8850     0.0000   106.0000 </r>
       <r>   -16.7674     9.8348   107.1567 </r>
       <r>   -16.6498     2.4423   107.6206 </r>
       <r>   -16.5321    18.9885   110.0000 </r>
       <r>   -16.4145     2.3493   110.2763 </r>
       <r>   -16.2969     2.0149   110.6370 </r>
       <r>   -16.1793     3.3604   111.1619 </r>
       <r>   -16.0617     1.4171   112.0000 </r>
       <r>   -15.9441     0.0000   112.0000 </r>
       <r>   -15.8265     7.5671   112.8900 </r>
       <r>   -15.7088     2.3260   113.4069 </r>
       <r>   -15.5912    20.6125   115.9910 </r>
       <r>   -15.4736     0.0000   118.0000 </r>
       <r>   -15.3560     3.4335   118.4038 </r>
       <r>   -15.2384     9.6238   123.1319 </r>
       <r>   -15.1208    12.2619   125.9755 </r>
       <r>   -15.0031    22.3894   130.0000 </r>
       <r>   -14.8855     0.0000   130.0000 </r>
       <r>   -14.7679     8.5457   131.0051 </r>
       <r>   -14.6503     5.9379   131.9984 </r>
       <r>   -14.5327    50.8750   137.9837 </r>
       <r>   -14.4151    25.4231   140.9901 </r>
       <r>   -14.2975    34.0093   146.0000 </r>
       <r>   -14.1798     0.0000   146.0000 </r>
       <r>   -14.0622     0.0000   146.0000 </r>
       <r>   -13.9446     0.0000   146.0000 </r>
       <r>   -13.8270     0.0029   146.0003 </r>
       <r>   -13.7094    46.1959   154.0000 </r>
       <r>   -13.5918    27.8294   157.8065 </r>
       <r>   -13.4742    16.4378   162.0000 </r>
       <r>   -13.3565     0.0472   162.0056 </r>
       <r>   -13.2389    10.2040   165.2001 </r>
       <r>   -13.1213    36.2855   170.2677 </r>
       <r>   -13.0037     0.0001   172.0000 </r>
       <r>   -12.8861    54.8976   180.7235 </r>
       <r>   -12.7685     0.0000   182.0000 </r>
       <r>   -12.6508    88.4459   192.4026 </r>
       <r>   -12.5332     9.6360   194.0000 </r>
       <r>   -12.4156    50.5136   199.9412 </r>
       <r>   -12.2980     0.0000   200.0000 </r>
       <r>   -12.1804     8.5331   201.0036 </r>
       <r>   -12.0628     3.0119   201.5876 </r>
       <r>   -11.9452     4.2265   202.2638 </r>
       <r>   -11.8275    35.5719   208.1838 </r>
       <r>   -11.7099     4.5610   210.7364 </r>
       <r>   -11.5923    15.7142   212.7482 </r>
       <r>   -11.4747    25.7417   217.9609 </r>
       <r>   -11.3571     0.0000   218.0000 </r>
       <r>   -11.2395    40.1266   222.7195 </r>
       <r>   -11.1219    41.8727   231.1249 </r>
       <r>   -11.0042    13.6792   233.6089 </r>
       <r>   -10.8866     0.0000   238.0000 </r>
       <r>   -10.7690    13.1800   239.7502 </r>
       <r>   -10.6514    10.4091   241.2243 </r>
       <r>   -10.5338    53.2617   247.6977 </r>
       <r>   -10.4162     0.0877   248.0103 </r>
       <r>   -10.2985     4.4780   250.7600 </r>
       <r>   -10.1809    33.1671   256.9676 </r>
       <r>   -10.0633    45.6924   262.8074 </r>
       <r>    -9.9457    24.5484   271.0873 </r>
       <r>    -9.8281    22.1057   274.0000 </r>
       <r>    -9.7105    34.0093   278.0000 </r>
       <r>    -9.5929     0.0000   278.0000 </r>
       <r>    -9.4752    11.6913   279.3751 </r>
       <r>    -9.3576    24.2710   282.6880 </r>
       <r>    -9.2400     0.0000   284.0000 </r>
       <r>    -9.1224    13.3203   286.0000 </r>
       <r>    -9.0048    17.9216   288.1078 </r>
       <r>    -8.8872    22.3205   293.0919 </r>
       <r>    -8.7696    12.7535   296.0000 </r>
       <r>    -8.6519     0.0023   296.0003 </r>
       <r>    -8.5343    94.6551   309.1329 </r>
       <r>    -8.4167     6.2350   312.0000 </r>
       <r>    -8.2991    34.9318   316.1085 </r>
       <r>    -8.1815    39.3941   322.0000 </r>
       <r>    -8.0639     0.0000   322.0000 </r>
       <r>    -7.9462     0.0000   322.0000 </r>
       <r>    -7.8286    51.0142   328.0000 </r>
       <r>    -7.7110    25.6865   337.5878 </r>
       <r>    -7.5934    15.6876   342.5784 </r>
       <r>    -7.4758    22.3894   346.0000 </r>
       <r>    -7.3582     0.8269   346.0973 </r>
       <r>    -7.2406     0.0000   352.0000 </r>
       <r>    -7.1229    37.1837   356.3734 </r>
       <r>    -7.0053     0.0000   358.0000 </r>
       <r>    -6.8877     0.0000   358.0000 </r>
       <r>    -6.7701    36.2919   362.2685 </r>
       <r>    -6.6525    34.0093   370.0000 </r>
       <r>    -6.5349    51.0139   376.0000 </r>
       <r>    -6.4173    41.6946   380.9039 </r>
       <r>    -6.2996    24.0899   388.0000 </r>
       <r>    -6.1820    34.0093   392.0000 </r>
       <r>    -6.0644    11.2382   393.3218 </r>
       <r>    -5.9468    34.0093   398.0000 </r>
       <r>    -5.8292    34.0093   402.0000 </r>
       <r>    -5.7116     0.0000   402.0000 </r>
       <r>    -5.5939     0.0000   402.0000 </r>
       <r>    -5.4763     0.0000   402.0000 </r>
       <r>    -5.3587     0.0000   402.0000 </r>
       <r>    -5.2411     0.0000   402.0000 </r>
       <r>    -5.1235     0.0000   402.0000 </r>
       <r>    -5.0059     0.0000   402.0000 </r>
       <r>    -4.8883     0.0000   402.0000 </r>
       <r>    -4.7706     0.0000   402.0000 </r>
       <r>    -4.6530     0.0000   402.0000 </r>
       <r>    -4.5354     0.0000   402.0000 </r>
       <r>    -4.4178     0.0000   402.0000 </r>
       <r>    -4.3002     0.0000   402.0000 </r>
       <r>    -4.1826     0.0000   402.0000 </r>
       <r>    -4.0650     0.0000   402.0000 </r>
       <r>    -3.9473     0.0000   402.0000 </r>
       <r>    -3.8297     0.0000   402.0000 </r>
       <r>    -3.7121     0.0000   402.0000 </r>
       <r>    -3.5945     0.0000   402.0000 </r>
       <r>    -3.4769    40.8941   406.8098 </r>
       <r>    -3.3593    51.0137   414.0000 </r>
       <r>    -3.2416     0.0000   414.0000 </r>
       <r>    -3.1240    33.9189   417.9894 </r>
       <r>    -3.0064     0.0000   418.0000 </r>
       <r>    -2.8888     0.0000   418.0000 </r>
       <r>    -2.7712    14.6056   419.7178 </r>
       <r>    -2.6536     0.0000   422.0000 </r>
       <r>    -2.5360     2.2825   422.2685 </r>
       <r>    -2.4183     4.3777   423.0149 </r>
       <r>    -2.3007     0.0000   424.0000 </r>
       <r>    -2.1831     0.0000   424.0000 </r>
       <r>    -2.0655     9.4730   425.1142 </r>
       <r>    -1.9479     2.7726   425.5928 </r>
       <r>    -1.8303    19.1492   428.0189 </r>
       <r>    -1.7126     0.5890   434.0693 </r>
       <r>    -1.5950    33.4351   438.2658 </r>
       <r>    -1.4774     3.3232   440.8909 </r>
       <r>    -1.3598     7.9354   442.0000 </r>
       <r>    -1.2422    27.8826   445.2794 </r>
       <r>    -1.1246    12.0383   449.4159 </r>
       <r>    -1.0070     2.2673   450.0000 </r>
       <r>    -0.8893     0.0000   450.0000 </r>
       <r>    -0.7717     0.0000   450.0000 </r>
       <r>    -0.6541     0.0000   450.0000 </r>
       <r>    -0.5365    17.3990   452.0464 </r>
       <r>    -0.4189     8.7091   455.0243 </r>
       <r>    -0.3013    34.0057   459.9996 </r>
       <r>    -0.1837    31.7885   463.7388 </r>
       <r>    -0.0660    17.4655   466.9209 </r>
       <r>     0.0516     9.3982   471.1054 </r>
       <r>     0.1692    34.1805   475.4201 </r>
       <r>     0.2868    40.5255   481.3997 </r>
       <r>     0.4044    43.5414   488.6545 </r>
       <r>     0.5220    27.1520   494.1268 </r>
       <r>     0.6397    46.4755   501.3995 </r>
       <r>     0.7573    53.0296   508.8037 </r>
       <r>     0.8749    51.5798   518.0666 </r>
       <r>     0.9925    59.1555   528.7909 </r>
       <r>     1.1101    61.5289   541.0367 </r>
       <r>     1.2277     3.9677   544.0000 </r>
       <r>     1.3453     0.0000   544.0000 </r>
       <r>     1.4630     0.0000   544.0000 </r>
       <r>     1.5806     0.0000   544.0000 </r>
       <r>     1.6982     0.0000   544.0000 </r>
       <r>     1.8158     0.0000   544.0000 </r>
       <r>     1.9334     0.0000   544.0000 </r>
       <r>     2.0510     0.0000   544.0000 </r>
       <r>     2.1686     0.0000   544.0000 </r>
       <r>     2.2863     0.0000   544.0000 </r>
       <r>     2.4039     0.0000   544.0000 </r>
       <r>     2.5215     0.0000   544.0000 </r>
       <r>     2.6391     0.0000   544.0000 </r>
       <r>     2.7567     0.0000   544.0000 </r>
      </set>
     </set>
    </array>
   </total>
  </dos>
 </calculation>
 <structure name="finalpos" >
  <crystal>
   <varray name="basis" >
    <v>      29.51503406       0.03467726       0.00000000 </v>
    <v>     -14.72739618      25.52664150       0.00000000 </v>
    <v>       0.00000000       0.00000000      20.00000000 </v>
   </varray>
   <i name="volume">  15078.60797690 </i>
   <varray name="rec_basis" >
    <v>       0.03385809       0.01953416       0.00000000 </v>
    <v>      -0.00004600       0.03914822       0.00000000 </v>
    <v>       0.00000000       0.00000000       0.05000000 </v>
   </varray>
  </crystal>
  <varray name="positions" >
   <v>       0.53922526       0.08427364       0.35512089 </v>
   <v>       0.57562239       0.03471427       0.34954620 </v>
   <v>       0.91203689       0.46227772       0.35621006 </v>
   <v>       0.95964220       0.42395379       0.34705892 </v>
   <v>       0.54272120       0.45769268       0.35911506 </v>
   <v>       0.45682659       0.41891415       0.35167831 </v>
   <v>       0.46027853       0.04288329       0.64587308 </v>
   <v>       0.54611259       0.08896776       0.63661777 </v>
   <v>       0.95969285       0.54023700       0.64630546 </v>
   <v>       0.91201663       0.45438050       0.63698875 </v>
   <v>       0.57640837       0.54545782       0.64441600 </v>
   <v>       0.53906145       0.45940847       0.64005377 </v>
   <v>       0.44688208       0.49620912       0.39497620 </v>
   <v>       0.49967399       0.55345837       0.59536313 </v>
   <v>       0.11809577       0.62754662       0.54309021 </v>
   <v>       0.21537863       0.67645877       0.54177347 </v>
   <v>       0.11852131       0.49563747       0.45003696 </v>
   <v>       0.21578930       0.54417737       0.45207202 </v>
   <v>       0.32154074       0.54292442       0.44904949 </v>
   <v>       0.37041219       0.49432935       0.44902005 </v>
   <v>       0.45492598       0.67736361       0.53319890 </v>
   <v>       0.50348398       0.62847638       0.53645088 </v>
   <v>       0.45484267       0.78191485       0.46160663 </v>
   <v>       0.50364833       0.87932561       0.45815271 </v>
   <v>       0.37134267       0.88113500       0.54707862 </v>
   <v>       0.32209580       0.78370177       0.54698303 </v>
   <v>       0.87725655       0.36938589       0.47369132 </v>
   <v>       0.77992180       0.32090510       0.47451995 </v>
   <v>       0.87711035       0.51239567       0.51944577 </v>
   <v>       0.77977892       0.46349813       0.51861548 </v>
   <v>       0.67801514       0.46358473       0.52197093 </v>
   <v>       0.62938321       0.51245869       0.52204624 </v>
   <v>       0.53562200       0.32052657       0.48026839 </v>
   <v>       0.48650701       0.36892624       0.47906086 </v>
   <v>       0.53604568       0.21919778       0.51543031 </v>
   <v>       0.48753872       0.12174708       0.51770820 </v>
   <v>       0.63035895       0.12170827       0.47172292 </v>
   <v>       0.67845358       0.21915339       0.47097187 </v>
   <v>       0.49939159       0.95063862       0.39945254 </v>
   <v>       0.04568444       0.49990689       0.39504874 </v>
   <v>       0.44894527       0.95535678       0.60113920 </v>
   <v>       0.04564659       0.55043746       0.59810357 </v>
   <v>       0.30383438       0.69440676       0.50628549 </v>
   <v>       0.38432862       0.69447563       0.49781633 </v>
   <v>       0.30375716       0.61431154       0.48860016 </v>
   <v>       0.69159044       0.30776058       0.49178433 </v>
   <v>       0.61097142       0.30763741       0.49679917 </v>
   <v>       0.69144699       0.38819719       0.50169901 </v>
   <v>       0.54869965       0.05075688       0.37729362 </v>
   <v>       0.94518085       0.45159228       0.37639614 </v>
   <v>       0.49919892       0.44758173       0.37965824 </v>
   <v>       0.50214355       0.05614288       0.61673333 </v>
   <v>       0.94517764       0.49817750       0.61685546 </v>
   <v>       0.54881741       0.50234724       0.61738679 </v>
   <v>       0.46828447       0.49858082       0.44045538 </v>
   <v>       0.49837996       0.53113315       0.55125798 </v>
   <v>       0.46911926       0.52895940       0.49487822 </v>
   <v>       0.27938009       0.64218860       0.49732034 </v>
   <v>       0.35632134       0.71892644       0.50317973 </v>
   <v>       0.35623532       0.64207197       0.49216481 </v>
   <v>       0.38547448       0.77678116       0.50444350 </v>
   <v>       0.36214409       0.80503020       0.52853387 </v>
   <v>       0.38983846       0.85948478       0.52847025 </v>
   <v>       0.44083636       0.88695632       0.50236878 </v>
   <v>       0.46384073       0.85847176       0.47772157 </v>
   <v>       0.43681964       0.80408802       0.47967124 </v>
   <v>       0.22159791       0.61332443       0.49697350 </v>
   <v>       0.19373552       0.63661077       0.52254508 </v>
   <v>       0.13940101       0.60908196       0.52322033 </v>
   <v>       0.11157495       0.55821114       0.49659088 </v>
   <v>       0.13963544       0.53535339       0.47006657 </v>
   <v>       0.19396640       0.56226582       0.47112996 </v>
   <v>       0.38524425       0.61318937       0.49096497 </v>
   <v>       0.36165890       0.56152825       0.46721992 </v>
   <v>       0.38916733       0.53455502       0.46730255 </v>
   <v>       0.44029559       0.55797457       0.49297814 </v>
   <v>       0.46357310       0.60957262       0.51722832 </v>
   <v>       0.43669223       0.63711240       0.51536697 </v>
   <v>       0.71598238       0.36023615       0.49665866 </v>
   <v>       0.63908197       0.28317772       0.49366721 </v>
   <v>       0.63893618       0.36016838       0.50001846 </v>
   <v>       0.61024702       0.22523224       0.49303629 </v>
   <v>       0.63657169       0.19741230       0.48065747 </v>
   <v>       0.60954420       0.14300333       0.48107626 </v>
   <v>       0.55577561       0.11532964       0.49489205 </v>
   <v>       0.52943453       0.14306036       0.50745749 </v>
   <v>       0.55631317       0.19744512       0.50605579 </v>
   <v>       0.77382967       0.38919367       0.49658551 </v>
   <v>       0.80162174       0.36289251       0.48389342 </v>
   <v>       0.85593571       0.39012244       0.48339725 </v>
   <v>       0.88353361       0.44405925       0.49659138 </v>
   <v>       0.85586259       0.47036003       0.50974462 </v>
   <v>       0.80154781       0.44325686       0.50924957 </v>
   <v>       0.60983976       0.38903748       0.50118569 </v>
   <v>       0.63601478       0.44320629       0.51309721 </v>
   <v>       0.60867839       0.47030952       0.51317932 </v>
   <v>       0.55474379       0.44389474       0.50041417 </v>
   <v>       0.52852650       0.38977296       0.48847006 </v>
   <v>       0.55573485       0.36256692       0.48928403 </v>
   <v>       0.52462158       0.02616133       0.44219033 </v>
   <v>       0.49860859       0.97173418       0.44377888 </v>
   <v>       0.97129985       0.47510986       0.44075105 </v>
   <v>       0.02563418       0.50071630       0.44039269 </v>
   <v>       0.49722881       0.47311651       0.44258323 </v>
   <v>       0.46986489       0.94475886       0.50049256 </v>
   <v>       0.46983873       0.97434066       0.55536352 </v>
   <v>       0.49900389       0.02870456       0.55324682 </v>
   <v>       0.52687966       0.05738927       0.49666255 </v>
   <v>       0.05385421       0.52928461       0.49656624 </v>
   <v>       0.02561272       0.52958125       0.55276312 </v>
   <v>       0.97128212       0.50080948       0.55246609 </v>
   <v>       0.94139907       0.47299938       0.49661779 </v>
   <v>       0.52420152       0.50251165       0.55285168 </v>
   <v>       0.52574715       0.47286212       0.49874795 </v>
  </varray>
 </structure>
</modeling>
