<?xml version="1.0" encoding="ISO-8859-1"?>
<modeling>
 <generator>
  <i name="program" type="string">vasp </i>
  <i name="version" type="string">5.4.4.18Apr17-6-g9f103f2a35  </i>
  <i name="subversion" type="string">(build Jun 07 2020 16:50:00) complex            parallel </i>
  <i name="platform" type="string">LinuxIFC </i>
  <i name="date" type="string">2023 02 27 </i>
  <i name="time" type="string">15:23:11 </i>
 </generator>
 <incar>
  <i type="string" name="SYSTEM">Simulation for cell shape cell volume r</i>
  <i type="int" name="ISTART">     1</i>
  <i type="string" name="PREC">high</i>
  <i type="string" name="ALGO">48</i>
  <i type="int" name="ICHARG">    11</i>
  <i type="int" name="NELM">   200</i>
  <i type="int" name="IBRION">    -1</i>
  <i name="EDIFF">      0.00001000</i>
  <i name="EDIFFG">     -0.01000000</i>
  <i type="int" name="NSW">     0</i>
  <i type="int" name="ISIF">     2</i>
  <i name="ENCUT">    500.00000000</i>
  <i name="POTIM">      0.30000000</i>
  <i type="string" name="LREAL">A</i>
  <i type="int" name="ISMEAR">     0</i>
  <i name="SIGMA">      0.01000000</i>
  <i type="int" name="NWRITE">     0</i>
  <i type="logical" name="LWAVE"> F  </i>
  <i type="logical" name="LCHARG"> F  </i>
  <v type="int" name="KPOINT_BSE">    -1     0     0     0</v>
  <i type="int" name="NELM">   200</i>
  <i type="string" name="GGA">PE</i>
 </incar>
 <structure name="primitive_cell" >
  <crystal>
   <varray name="basis" >
    <v>      29.93518946       0.04618947       0.00000000 </v>
    <v>       0.03256915      29.94276047       0.00000000 </v>
    <v>       0.00000000       0.00000000      20.00000000 </v>
   </varray>
   <i name="volume">  17926.81406218 </i>
   <varray name="rec_basis" >
    <v>       0.03340556      -0.00003634       0.00000000 </v>
    <v>      -0.00005153       0.03339711       0.00000000 </v>
    <v>       0.00000000       0.00000000       0.05000000 </v>
   </varray>
  </crystal>
  <varray name="positions" >
   <v>       0.02259739      -0.25455566       0.36820317 </v>
   <v>       0.01213976      -0.23758366       0.41387199 </v>
   <v>      -0.00248237      -0.26368413       0.46812867 </v>
   <v>       0.01325346      -0.19127504       0.41858978 </v>
   <v>       0.02476540      -0.17142594       0.37624146 </v>
   <v>      -0.00356809      -0.30997742       0.45963811 </v>
   <v>      -0.01713851      -0.24181392      -0.47343213 </v>
   <v>      -0.00138286      -0.16928322       0.47676129 </v>
   <v>       0.00524150      -0.33657463      -0.49156921 </v>
   <v>      -0.01667157      -0.19535729      -0.46955443 </v>
   <v>      -0.01958374      -0.38348352       0.39894646 </v>
   <v>       0.08729617      -0.15554365       0.47753878 </v>
   <v>      -0.03009863      -0.26138392      -0.43172811 </v>
   <v>       0.01626874      -0.32406862      -0.44215560 </v>
   <v>      -0.00203479      -0.11954848       0.47986229 </v>
   <v>       0.00242786      -0.38503638      -0.49855084 </v>
   <v>      -0.01065551      -0.40505609       0.44081396 </v>
   <v>       0.08225244      -0.11962780       0.47776690 </v>
   <v>      -0.02852964      -0.17877479      -0.42428986 </v>
   <v>      -0.09132316      -0.15724548       0.48099201 </v>
   <v>       0.03920339      -0.09671976       0.47915984 </v>
   <v>      -0.04443227      -0.09923829       0.48194441 </v>
   <v>      -0.08691167      -0.12133146       0.48240865 </v>
   <v>       0.01341324      -0.41273616      -0.44420273 </v>
   <v>       0.11393563      -0.08718537       0.47683474 </v>
   <v>      -0.01211435      -0.45116394       0.43489207 </v>
   <v>       0.02385273      -0.39762708      -0.39701528 </v>
   <v>      -0.02299115      -0.46611592       0.38789667 </v>
   <v>       0.04472128      -0.05127944       0.48018543 </v>
   <v>       0.14993582      -0.09141031       0.47487509 </v>
   <v>      -0.05314584      -0.05407389       0.48309965 </v>
   <v>      -0.11969649      -0.08920708       0.48495780 </v>
   <v>       0.09002185      -0.04468885       0.47887863 </v>
   <v>       0.01171310      -0.45900111      -0.45017443 </v>
   <v>      -0.00082272      -0.47918357       0.48912055 </v>
   <v>      -0.02928377      -0.02979137       0.48272538 </v>
   <v>      -0.15552033      -0.09432414       0.48672084 </v>
   <v>      -0.09848638      -0.04629446       0.48468165 </v>
   <v>       0.02138765      -0.47990554      -0.40788831 </v>
   <v>       0.02239725       0.47182591       0.37991930 </v>
   <v>       0.11180921      -0.00289550       0.47832753 </v>
   <v>      -0.00153061       0.47178104       0.48204324 </v>
   <v>       0.02138536       0.02246692       0.48107272 </v>
   <v>       0.01137598       0.45123307       0.42175315 </v>
   <v>       0.16155358      -0.00248962       0.47525681 </v>
   <v>      -0.11974219      -0.00437771       0.48646640 </v>
   <v>      -0.18002184      -0.03128417       0.39207673 </v>
   <v>       0.17097554      -0.03053050      -0.42635852 </v>
   <v>       0.18761115      -0.01815826      -0.47121335 </v>
   <v>       0.09054026       0.03902701       0.47961092 </v>
   <v>       0.04521149       0.04678827       0.48110780 </v>
   <v>       0.16363726       0.02435511       0.37515268 </v>
   <v>       0.18351641       0.01266254       0.41743886 </v>
   <v>      -0.05266086       0.04401954       0.48385109 </v>
   <v>      -0.02573596       0.45939120      -0.41761877 </v>
   <v>      -0.01458850       0.44411692      -0.46428372 </v>
   <v>      -0.19610163      -0.01991757       0.43803897 </v>
   <v>      -0.09793349       0.03739371       0.48594466 </v>
   <v>      -0.16945555      -0.00475148       0.49113630 </v>
   <v>       0.23408594      -0.01842698      -0.47489124 </v>
   <v>       0.22984711       0.01169954       0.41286695 </v>
   <v>       0.01179896       0.40494577       0.41567732 </v>
   <v>       0.25371854      -0.03168715      -0.43338833 </v>
   <v>       0.25593259      -0.00319453       0.46704385 </v>
   <v>       0.03646679       0.09191840       0.48362523 </v>
   <v>       0.02259550       0.38953161       0.36884689 </v>
   <v>       0.11175480       0.08193058       0.48113536 </v>
   <v>      -0.24252314      -0.02065405       0.44324411 </v>
   <v>       0.24684945       0.02247795       0.36744346 </v>
   <v>      -0.04718226       0.08946957       0.48512277 </v>
   <v>      -0.19077176       0.00913321      -0.44972893 </v>
   <v>      -0.26259130      -0.03333244       0.40186796 </v>
   <v>      -0.01443536       0.39797986      -0.47034367 </v>
   <v>      -0.17044277       0.02049859      -0.40779463 </v>
   <v>       0.14761317       0.08701034       0.48087188 </v>
   <v>      -0.12190244       0.07985712       0.48763874 </v>
   <v>      -0.00089873       0.37758065       0.46947384 </v>
   <v>      -0.00592085       0.11224434       0.48555882 </v>
   <v>       0.30225289      -0.00390140       0.45878565 </v>
   <v>       0.07891593       0.11405023       0.48316269 </v>
   <v>      -0.26372806      -0.00641805      -0.49754016 </v>
   <v>      -0.23701578       0.00773134      -0.44367758 </v>
   <v>      -0.15793446       0.08397633       0.48866646 </v>
   <v>      -0.09024614       0.11233143       0.48787560 </v>
   <v>      -0.02471047       0.37670094      -0.42889020 </v>
   <v>       0.32863910       0.00506068      -0.49229780 </v>
   <v>       0.08321417       0.14999203       0.48429919 </v>
   <v>      -0.25343786       0.01784640      -0.39739830 </v>
   <v>       0.31584126       0.01591397      -0.44292452 </v>
   <v>       0.00089001       0.32907422       0.46231839 </v>
   <v>      -0.31000399      -0.00711727      -0.48820480 </v>
   <v>      -0.00660650       0.16196099       0.49017294 </v>
   <v>       0.37640618      -0.01921900       0.39844029 </v>
   <v>      -0.09530825       0.14821839       0.48986647 </v>
   <v>       0.01275182       0.31640963       0.41338279 </v>
   <v>      -0.03390856       0.17233444       0.39154416 </v>
   <v>      -0.32404054       0.01515228       0.41484934 </v>
   <v>       0.01928924       0.16311496      -0.40911580 </v>
   <v>      -0.33665182       0.00331131       0.46377233 </v>
   <v>       0.37718455       0.00273590      -0.49899331 </v>
   <v>      -0.02221585       0.18851015       0.43717654 </v>
   <v>       0.39766214      -0.01006231       0.44051284 </v>
   <v>      -0.00947659       0.30250097      -0.48963268 </v>
   <v>       0.00761831       0.18336658      -0.45101459 </v>
   <v>       0.40452950       0.01396820      -0.44441391 </v>
   <v>      -0.38516921       0.00153911       0.47081051 </v>
   <v>       0.38909051       0.02417561      -0.39731138 </v>
   <v>      -0.38431873      -0.02207869      -0.42746927 </v>
   <v>       0.44382703      -0.01095596       0.43494389 </v>
   <v>      -0.02312895       0.23492714       0.44221157 </v>
   <v>      -0.03618495       0.25492475       0.40094841 </v>
   <v>       0.45912889      -0.02160973       0.38803753 </v>
   <v>      -0.00862851       0.25622448      -0.49884224 </v>
   <v>       0.00597987       0.22961560      -0.44507408 </v>
   <v>      -0.40560208      -0.01198067      -0.46908415 </v>
   <v>      -0.39709109       0.02497813       0.37009507 </v>
   <v>      -0.41252553       0.01413238       0.41684796 </v>
   <v>       0.45085235       0.01282570      -0.45002330 </v>
   <v>       0.01621577       0.24613344      -0.39896812 </v>
   <v>       0.47147877       0.00062431       0.48940839 </v>
   <v>      -0.45176506      -0.01238981      -0.46332008 </v>
   <v>       0.47143472       0.02267267      -0.40752393 </v>
   <v>      -0.45883367       0.01348342       0.42264616 </v>
   <v>      -0.46703285      -0.02362832      -0.41674291 </v>
   <v>      -0.47943037       0.00042744       0.48278854 </v>
   <v>      -0.47943382       0.02436924       0.38067746 </v>
  </varray>
 </structure>
 <varray name="primitive_index" >
  <v type="int" >        1 </v>
  <v type="int" >       82 </v>
  <v type="int" >       81 </v>
  <v type="int" >       80 </v>
  <v type="int" >        2 </v>
  <v type="int" >      125 </v>
  <v type="int" >      104 </v>
  <v type="int" >       79 </v>
  <v type="int" >      111 </v>
  <v type="int" >      103 </v>
  <v type="int" >       21 </v>
  <v type="int" >        7 </v>
  <v type="int" >       29 </v>
  <v type="int" >       41 </v>
  <v type="int" >       51 </v>
  <v type="int" >      105 </v>
  <v type="int" >       83 </v>
  <v type="int" >       55 </v>
  <v type="int" >       30 </v>
  <v type="int" >        3 </v>
  <v type="int" >       52 </v>
  <v type="int" >       50 </v>
  <v type="int" >       47 </v>
  <v type="int" >      108 </v>
  <v type="int" >       54 </v>
  <v type="int" >       84 </v>
  <v type="int" >       38 </v>
  <v type="int" >       22 </v>
  <v type="int" >      120 </v>
  <v type="int" >        8 </v>
  <v type="int" >      119 </v>
  <v type="int" >       48 </v>
  <v type="int" >       53 </v>
  <v type="int" >      107 </v>
  <v type="int" >      106 </v>
  <v type="int" >        5 </v>
  <v type="int" >        4 </v>
  <v type="int" >       49 </v>
  <v type="int" >       37 </v>
  <v type="int" >       19 </v>
  <v type="int" >       56 </v>
  <v type="int" >       85 </v>
  <v type="int" >        6 </v>
  <v type="int" >       86 </v>
  <v type="int" >       75 </v>
  <v type="int" >       66 </v>
  <v type="int" >       17 </v>
  <v type="int" >       31 </v>
  <v type="int" >      102 </v>
  <v type="int" >       57 </v>
  <v type="int" >      121 </v>
  <v type="int" >        9 </v>
  <v type="int" >       76 </v>
  <v type="int" >      122 </v>
  <v type="int" >       40 </v>
  <v type="int" >      110 </v>
  <v type="int" >       70 </v>
  <v type="int" >       63 </v>
  <v type="int" >       67 </v>
  <v type="int" >      101 </v>
  <v type="int" >       77 </v>
  <v type="int" >       87 </v>
  <v type="int" >       32 </v>
  <v type="int" >       78 </v>
  <v type="int" >       58 </v>
  <v type="int" >       20 </v>
  <v type="int" >       60 </v>
  <v type="int" >       69 </v>
  <v type="int" >       10 </v>
  <v type="int" >       62 </v>
  <v type="int" >       97 </v>
  <v type="int" >       18 </v>
  <v type="int" >      109 </v>
  <v type="int" >       36 </v>
  <v type="int" >       11 </v>
  <v type="int" >       64 </v>
  <v type="int" >       88 </v>
  <v type="int" >       61 </v>
  <v type="int" >      124 </v>
  <v type="int" >       59 </v>
  <v type="int" >       68 </v>
  <v type="int" >       98 </v>
  <v type="int" >       13 </v>
  <v type="int" >       65 </v>
  <v type="int" >       39 </v>
  <v type="int" >      118 </v>
  <v type="int" >       12 </v>
  <v type="int" >       35 </v>
  <v type="int" >       46 </v>
  <v type="int" >       89 </v>
  <v type="int" >      126 </v>
  <v type="int" >       71 </v>
  <v type="int" >       26 </v>
  <v type="int" >       14 </v>
  <v type="int" >       23 </v>
  <v type="int" >       15 </v>
  <v type="int" >       28 </v>
  <v type="int" >       33 </v>
  <v type="int" >       96 </v>
  <v type="int" >      112 </v>
  <v type="int" >       74 </v>
  <v type="int" >       90 </v>
  <v type="int" >      123 </v>
  <v type="int" >       99 </v>
  <v type="int" >      115 </v>
  <v type="int" >       95 </v>
  <v type="int" >       43 </v>
  <v type="int" >       44 </v>
  <v type="int" >       91 </v>
  <v type="int" >       73 </v>
  <v type="int" >       16 </v>
  <v type="int" >       27 </v>
  <v type="int" >       72 </v>
  <v type="int" >      100 </v>
  <v type="int" >      116 </v>
  <v type="int" >       25 </v>
  <v type="int" >       94 </v>
  <v type="int" >      114 </v>
  <v type="int" >       34 </v>
  <v type="int" >      113 </v>
  <v type="int" >      117 </v>
  <v type="int" >       42 </v>
  <v type="int" >       93 </v>
  <v type="int" >       45 </v>
  <v type="int" >       92 </v>
  <v type="int" >       24 </v>
 </varray>
 <kpoints>
  <generation param="listgenerated">
   <i name="divisions" type="int">      20 </i>
   <v>       0.00000000       0.00000000       0.00000000 </v>
   <v>       0.50000000       0.00000000       0.00000000 </v>
   <v>       0.50000000       0.50000000       0.00000000 </v>
   <v>       0.00000000       0.00000000       0.00000000 </v>
  </generation>
  <varray name="kpointlist" >
   <v>       0.00000000       0.00000000       0.00000000 </v>
   <v>       0.02631579       0.00000000       0.00000000 </v>
   <v>       0.05263158       0.00000000       0.00000000 </v>
   <v>       0.07894737       0.00000000       0.00000000 </v>
   <v>       0.10526316       0.00000000       0.00000000 </v>
   <v>       0.13157895       0.00000000       0.00000000 </v>
   <v>       0.15789474       0.00000000       0.00000000 </v>
   <v>       0.18421053       0.00000000       0.00000000 </v>
   <v>       0.21052632       0.00000000       0.00000000 </v>
   <v>       0.23684211       0.00000000       0.00000000 </v>
   <v>       0.26315789       0.00000000       0.00000000 </v>
   <v>       0.28947368       0.00000000       0.00000000 </v>
   <v>       0.31578947       0.00000000       0.00000000 </v>
   <v>       0.34210526       0.00000000       0.00000000 </v>
   <v>       0.36842105       0.00000000       0.00000000 </v>
   <v>       0.39473684       0.00000000       0.00000000 </v>
   <v>       0.42105263       0.00000000       0.00000000 </v>
   <v>       0.44736842       0.00000000       0.00000000 </v>
   <v>       0.47368421       0.00000000       0.00000000 </v>
   <v>       0.50000000       0.00000000       0.00000000 </v>
   <v>       0.50000000       0.00000000       0.00000000 </v>
   <v>       0.50000000       0.02631579       0.00000000 </v>
   <v>       0.50000000       0.05263158       0.00000000 </v>
   <v>       0.50000000       0.07894737       0.00000000 </v>
   <v>       0.50000000       0.10526316       0.00000000 </v>
   <v>       0.50000000       0.13157895       0.00000000 </v>
   <v>       0.50000000       0.15789474       0.00000000 </v>
   <v>       0.50000000       0.18421053       0.00000000 </v>
   <v>       0.50000000       0.21052632       0.00000000 </v>
   <v>       0.50000000       0.23684211       0.00000000 </v>
   <v>       0.50000000       0.26315789       0.00000000 </v>
   <v>       0.50000000       0.28947368       0.00000000 </v>
   <v>       0.50000000       0.31578947       0.00000000 </v>
   <v>       0.50000000       0.34210526       0.00000000 </v>
   <v>       0.50000000       0.36842105       0.00000000 </v>
   <v>       0.50000000       0.39473684       0.00000000 </v>
   <v>       0.50000000       0.42105263       0.00000000 </v>
   <v>       0.50000000       0.44736842       0.00000000 </v>
   <v>       0.50000000       0.47368421       0.00000000 </v>
   <v>       0.50000000       0.50000000       0.00000000 </v>
   <v>       0.50000000       0.50000000       0.00000000 </v>
   <v>       0.47368421       0.47368421       0.00000000 </v>
   <v>       0.44736842       0.44736842       0.00000000 </v>
   <v>       0.42105263       0.42105263       0.00000000 </v>
   <v>       0.39473684       0.39473684       0.00000000 </v>
   <v>       0.36842105       0.36842105       0.00000000 </v>
   <v>       0.34210526       0.34210526       0.00000000 </v>
   <v>       0.31578947       0.31578947       0.00000000 </v>
   <v>       0.28947368       0.28947368       0.00000000 </v>
   <v>       0.26315789       0.26315789       0.00000000 </v>
   <v>       0.23684211       0.23684211       0.00000000 </v>
   <v>       0.21052632       0.21052632       0.00000000 </v>
   <v>       0.18421053       0.18421053       0.00000000 </v>
   <v>       0.15789474       0.15789474       0.00000000 </v>
   <v>       0.13157895       0.13157895       0.00000000 </v>
   <v>       0.10526316       0.10526316       0.00000000 </v>
   <v>       0.07894737       0.07894737       0.00000000 </v>
   <v>       0.05263158       0.05263158       0.00000000 </v>
   <v>       0.02631579       0.02631579       0.00000000 </v>
   <v>       0.00000000       0.00000000       0.00000000 </v>
  </varray>
  <varray name="weights" >
   <v>       0.01666667 </v>
   <v>       0.01666667 </v>
   <v>       0.01666667 </v>
   <v>       0.01666667 </v>
   <v>       0.01666667 </v>
   <v>       0.01666667 </v>
   <v>       0.01666667 </v>
   <v>       0.01666667 </v>
   <v>       0.01666667 </v>
   <v>       0.01666667 </v>
   <v>       0.01666667 </v>
   <v>       0.01666667 </v>
   <v>       0.01666667 </v>
   <v>       0.01666667 </v>
   <v>       0.01666667 </v>
   <v>       0.01666667 </v>
   <v>       0.01666667 </v>
   <v>       0.01666667 </v>
   <v>       0.01666667 </v>
   <v>       0.01666667 </v>
   <v>       0.01666667 </v>
   <v>       0.01666667 </v>
   <v>       0.01666667 </v>
   <v>       0.01666667 </v>
   <v>       0.01666667 </v>
   <v>       0.01666667 </v>
   <v>       0.01666667 </v>
   <v>       0.01666667 </v>
   <v>       0.01666667 </v>
   <v>       0.01666667 </v>
   <v>       0.01666667 </v>
   <v>       0.01666667 </v>
   <v>       0.01666667 </v>
   <v>       0.01666667 </v>
   <v>       0.01666667 </v>
   <v>       0.01666667 </v>
   <v>       0.01666667 </v>
   <v>       0.01666667 </v>
   <v>       0.01666667 </v>
   <v>       0.01666667 </v>
   <v>       0.01666667 </v>
   <v>       0.01666667 </v>
   <v>       0.01666667 </v>
   <v>       0.01666667 </v>
   <v>       0.01666667 </v>
   <v>       0.01666667 </v>
   <v>       0.01666667 </v>
   <v>       0.01666667 </v>
   <v>       0.01666667 </v>
   <v>       0.01666667 </v>
   <v>       0.01666667 </v>
   <v>       0.01666667 </v>
   <v>       0.01666667 </v>
   <v>       0.01666667 </v>
   <v>       0.01666667 </v>
   <v>       0.01666667 </v>
   <v>       0.01666667 </v>
   <v>       0.01666667 </v>
   <v>       0.01666667 </v>
   <v>       0.01666667 </v>
  </varray>
 </kpoints>
 <parameters>
  <separator name="general" >
   <i type="string" name="SYSTEM">Simulation for cell shape cell volume r</i>
   <i type="logical" name="LCOMPAT"> F  </i>
  </separator>
  <separator name="electronic" >
   <i type="string" name="PREC">high</i>
   <i name="ENMAX">    500.00000000</i>
   <i name="ENAUG">    644.87300000</i>
   <i name="EDIFF">      0.00001000</i>
   <i type="int" name="IALGO">    38</i>
   <i type="int" name="IWAVPR">    10</i>
   <i type="int" name="NBANDS">   256</i>
   <i name="NELECT">    374.00000000</i>
   <i type="int" name="TURBO">     0</i>
   <i type="int" name="IRESTART">     0</i>
   <i type="int" name="NREBOOT">     0</i>
   <i type="int" name="NMIN">     0</i>
   <i name="EREF">      0.00000000</i>
   <separator name="electronic smearing" >
    <i type="int" name="ISMEAR">     0</i>
    <i name="SIGMA">      0.01000000</i>
    <i name="KSPACING">      0.50000000</i>
    <i type="logical" name="KGAMMA"> T  </i>
   </separator>
   <separator name="electronic projectors" >
    <i type="logical" name="LREAL"> T  </i>
    <v name="ROPT">     -0.00040000     -0.00040000     -0.00040000</v>
    <i type="int" name="LMAXPAW">  -100</i>
    <i type="int" name="LMAXMIX">     2</i>
    <i type="logical" name="NLSPLINE"> F  </i>
   </separator>
   <separator name="electronic startup" >
    <i type="int" name="ISTART">     1</i>
    <i type="int" name="ICHARG">    11</i>
    <i type="int" name="INIWAV">     1</i>
   </separator>
   <separator name="electronic spin" >
    <i type="int" name="ISPIN">     1</i>
    <i type="logical" name="LNONCOLLINEAR"> F  </i>
    <v name="MAGMOM">      1.00000000      1.00000000      1.00000000      1.00000000      1.00000000      1.00000000      1.00000000      1.00000000      1.00000000      1.00000000      1.00000000      1.00000000      1.00000000      1.00000000      1.00000000      1.00000000      1.00000000      1.00000000      1.00000000      1.00000000
      1.00000000      1.00000000      1.00000000      1.00000000      1.00000000      1.00000000      1.00000000      1.00000000      1.00000000      1.00000000      1.00000000      1.00000000      1.00000000      1.00000000      1.00000000      1.00000000      1.00000000      1.00000000      1.00000000      1.00000000
      1.00000000      1.00000000      1.00000000      1.00000000      1.00000000      1.00000000      1.00000000      1.00000000      1.00000000      1.00000000      1.00000000      1.00000000      1.00000000      1.00000000      1.00000000      1.00000000      1.00000000      1.00000000      1.00000000      1.00000000
      1.00000000      1.00000000      1.00000000      1.00000000      1.00000000      1.00000000      1.00000000      1.00000000      1.00000000      1.00000000      1.00000000      1.00000000      1.00000000      1.00000000      1.00000000      1.00000000      1.00000000      1.00000000      1.00000000      1.00000000
      1.00000000      1.00000000      1.00000000      1.00000000      1.00000000      1.00000000      1.00000000      1.00000000      1.00000000      1.00000000      1.00000000      1.00000000      1.00000000      1.00000000      1.00000000      1.00000000      1.00000000      1.00000000      1.00000000      1.00000000
      1.00000000      1.00000000      1.00000000      1.00000000      1.00000000      1.00000000      1.00000000      1.00000000      1.00000000      1.00000000      1.00000000      1.00000000      1.00000000      1.00000000      1.00000000      1.00000000      1.00000000      1.00000000      1.00000000      1.00000000
      1.00000000      1.00000000      1.00000000      1.00000000      1.00000000      1.00000000</v>
    <i name="NUPDOWN">     -1.00000000</i>
    <i type="logical" name="LSORBIT"> F  </i>
    <v name="SAXIS">      0.00000000      0.00000000      1.00000000</v>
    <i type="logical" name="LSPIRAL"> F  </i>
    <v name="QSPIRAL">      0.00000000      0.00000000      0.00000000</v>
    <i type="logical" name="LZEROZ"> F  </i>
   </separator>
   <separator name="electronic exchange-correlation" >
    <i type="logical" name="LASPH"> F  </i>
    <i type="logical" name="LMETAGGA"> F  </i>
   </separator>
   <separator name="electronic convergence" >
    <i type="int" name="NELM">   200</i>
    <i type="int" name="NELMDL">     0</i>
    <i type="int" name="NELMIN">     2</i>
    <i name="ENINI">    500.00000000</i>
    <separator name="electronic convergence detail" >
     <i type="logical" name="LDIAG"> T  </i>
     <i type="logical" name="LSUBROT"> F  </i>
     <i name="WEIMIN">      0.00000000</i>
     <i name="EBREAK">      0.00000001</i>
     <i name="DEPER">      0.30000000</i>
     <i type="int" name="NRMM">     4</i>
     <i name="TIME">      0.40000000</i>
    </separator>
   </separator>
   <separator name="electronic mixer" >
    <i name="AMIX">      0.40000000</i>
    <i name="BMIX">      1.00000000</i>
    <i name="AMIN">      0.10000000</i>
    <i name="AMIX_MAG">      1.60000000</i>
    <i name="BMIX_MAG">      1.00000000</i>
    <separator name="electronic mixer details" >
     <i type="int" name="IMIX">     4</i>
     <i type="logical" name="MIXFIRST"> F  </i>
     <i type="int" name="MAXMIX">   -45</i>
     <i name="WC">    100.00000000</i>
     <i type="int" name="INIMIX">     1</i>
     <i type="int" name="MIXPRE">     1</i>
     <i type="int" name="MREMOVE">     5</i>
    </separator>
   </separator>
   <separator name="electronic dipolcorrection" >
    <i type="logical" name="LDIPOL"> F  </i>
    <i type="logical" name="LMONO"> F  </i>
    <i type="int" name="IDIPOL">     0</i>
    <i name="EPSILON">      1.00000000</i>
    <v name="DIPOL">   -100.00000000   -100.00000000   -100.00000000</v>
    <i name="EFIELD">      0.00000000</i>
   </separator>
  </separator>
  <separator name="grids" >
   <i type="int" name="NGX">   224</i>
   <i type="int" name="NGY">   224</i>
   <i type="int" name="NGZ">   150</i>
   <i type="int" name="NGXF">   336</i>
   <i type="int" name="NGYF">   336</i>
   <i type="int" name="NGZF">   224</i>
   <i type="logical" name="ADDGRID"> F  </i>
  </separator>
  <separator name="ionic" >
   <i type="int" name="NSW">     0</i>
   <i type="int" name="IBRION">    -1</i>
   <i type="int" name="MDALGO">     0</i>
   <i type="int" name="ISIF">     2</i>
   <i name="PSTRESS">      0.00000000</i>
   <i name="EDIFFG">     -0.01000000</i>
   <i type="int" name="NFREE">     0</i>
   <i name="POTIM">      0.30000000</i>
   <i name="SMASS">     -3.00000000</i>
   <i name="SCALEE">      1.00000000</i>
  </separator>
  <separator name="ionic md" >
   <i name="TEBEG">      0.00010000</i>
   <i name="TEEND">      0.00010000</i>
   <i type="int" name="NBLOCK">     1</i>
   <i type="int" name="KBLOCK">     1</i>
   <i type="int" name="NPACO">   256</i>
   <i name="APACO">     16.00000000</i>
  </separator>
  <separator name="symmetry" >
   <i type="int" name="ISYM">     2</i>
   <i name="SYMPREC">      0.00001000</i>
  </separator>
  <separator name="dos" >
   <i type="int" name="LORBIT">     0</i>
   <v name="RWIGS">     -1.00000000     -1.00000000     -1.00000000</v>
   <i type="int" name="NEDOS">   301</i>
   <i name="EMIN">     10.00000000</i>
   <i name="EMAX">    -10.00000000</i>
   <i name="EFERMI">      0.00000000</i>
  </separator>
  <separator name="writing" >
   <i type="int" name="NWRITE">     0</i>
   <i type="logical" name="LWAVE"> F  </i>
   <i type="logical" name="LDOWNSAMPLE"> F  </i>
   <i type="logical" name="LCHARG"> F  </i>
   <i type="logical" name="LPARD"> F  </i>
   <i type="logical" name="LVTOT"> F  </i>
   <i type="logical" name="LVHAR"> F  </i>
   <i type="logical" name="LELF"> F  </i>
   <i type="logical" name="LOPTICS"> F  </i>
   <v name="STM">      0.00000000      0.00000000      0.00000000      0.00000000      0.00000000      0.00000000      0.00000000</v>
  </separator>
  <separator name="performance" >
   <i type="int" name="NPAR">    16</i>
   <i type="int" name="NSIM">     4</i>
   <i type="int" name="NBLK">    -1</i>
   <i type="logical" name="LPLANE"> T  </i>
   <i type="logical" name="LSCALAPACK"> T  </i>
   <i type="logical" name="LSCAAWARE"> F  </i>
   <i type="logical" name="LSCALU"> F  </i>
   <i type="logical" name="LASYNC"> F  </i>
   <i type="logical" name="LORBITALREAL"> F  </i>
  </separator>
  <separator name="miscellaneous" >
   <i type="int" name="IDIOT">     3</i>
   <i type="int" name="ISPECIAL">     0</i>
   <i type="logical" name="LMUSIC"> F  </i>
   <v name="POMASS">      1.00000000     12.01100000     14.00100000</v>
   <v name="DARWINR">      0.00000000      0.00000000      0.00000000</v>
   <v name="DARWINV">      1.00000000      1.00000000      1.00000000</v>
   <i type="logical" name="LCORR"> T  </i>
  </separator>
  <i type="logical" name="GGA_COMPAT"> T  </i>
  <i type="logical" name="LBERRY"> F  </i>
  <i type="int" name="ICORELEVEL">     0</i>
  <i type="logical" name="LDAU"> F  </i>
  <i type="int" name="I_CONSTRAINED_M">     0</i>
  <separator name="electronic exchange-correlation" >
   <i type="string" name="GGA">PE</i>
   <i type="int" name="VOSKOWN">     0</i>
   <i type="logical" name="LHFCALC"> F  </i>
   <i type="string" name="PRECFOCK"></i>
   <i type="logical" name="LSYMGRAD"> F  </i>
   <i type="logical" name="LHFONE"> F  </i>
   <i type="logical" name="LRHFCALC"> F  </i>
   <i type="logical" name="LTHOMAS"> F  </i>
   <i type="logical" name="LMODELHF"> F  </i>
   <i name="ENCUT4O">     -1.00000000</i>
   <i type="int" name="EXXOEP">     0</i>
   <i type="int" name="FOURORBIT">     0</i>
   <i name="AEXX">      0.00000000</i>
   <i name="HFALPHA">      0.00000000</i>
   <i name="MCALPHA">      0.00000000</i>
   <i name="ALDAX">      1.00000000</i>
   <i name="AGGAX">      1.00000000</i>
   <i name="ALDAC">      1.00000000</i>
   <i name="AGGAC">      1.00000000</i>
   <i type="int" name="NKREDX">     1</i>
   <i type="int" name="NKREDY">     1</i>
   <i type="int" name="NKREDZ">     1</i>
   <i type="logical" name="SHIFTRED"> F  </i>
   <i type="logical" name="ODDONLY"> F  </i>
   <i type="logical" name="EVENONLY"> F  </i>
   <i type="int" name="LMAXFOCK">     0</i>
   <i type="int" name="NMAXFOCKAE">     0</i>
   <i type="logical" name="LFOCKAEDFT"> F  </i>
   <i name="HFSCREEN">      0.00000000</i>
   <i name="HFSCREENC">      0.00000000</i>
   <i type="int" name="NBANDSGWLOW">     0</i>
  </separator>
  <separator name="vdW DFT" >
   <i type="logical" name="LUSE_VDW"> F  </i>
   <i name="Zab_VDW">     -0.84910000</i>
   <i name="PARAM1">      0.12340000</i>
   <i name="PARAM2">      1.00000000</i>
   <i name="PARAM3">      0.00000000</i>
  </separator>
  <separator name="model GW" >
   <i type="int" name="MODEL_GW">     0</i>
   <i name="MODEL_EPS0">     85.36578125</i>
   <i name="MODEL_ALPHA">      1.00000000</i>
  </separator>
  <separator name="linear response parameters" >
   <i type="logical" name="LEPSILON"> F  </i>
   <i type="logical" name="LRPA"> F  </i>
   <i type="logical" name="LNABLA"> F  </i>
   <i type="logical" name="LVEL"> F  </i>
   <i type="int" name="KINTER">     0</i>
   <i name="CSHIFT">      0.10000000</i>
   <i name="OMEGAMAX">     -1.00000000</i>
   <i name="DEG_THRESHOLD">      0.00200000</i>
   <i name="RTIME">     -0.10000000</i>
   <i name="WPLASMAI">      0.00000000</i>
   <v name="DFIELD">      0.00000000      0.00000000      0.00000000</v>
   <v name="WPLASMA">      0.00000000      0.00000000      0.00000000      0.00000000      0.00000000      0.00000000      0.00000000      0.00000000      0.00000000</v>
  </separator>
  <separator name="orbital magnetization" >
   <i type="logical" name="NUCIND"> F  </i>
   <v name="MAGPOS">      0.00000000      0.00000000      0.00000000</v>
   <i type="logical" name="LNICSALL"> T  </i>
   <i type="logical" name="ORBITALMAG"> F  </i>
   <i type="logical" name="LMAGBLOCH"> F  </i>
   <i type="logical" name="LCHIMAG"> F  </i>
   <i type="logical" name="LGAUGE"> T  </i>
   <i type="int" name="MAGATOM">     0</i>
   <v name="MAGDIPOL">      0.00000000      0.00000000      0.00000000</v>
   <v name="AVECCONST">      0.00000000      0.00000000      0.00000000</v>
  </separator>
  <separator name="response functions" >
   <i type="logical" name="LADDER"> F  </i>
   <i type="logical" name="LRPAFORCE"> F  </i>
   <i type="logical" name="LFXC"> F  </i>
   <i type="logical" name="LHARTREE"> T  </i>
   <i type="int" name="IBSE">     0</i>
   <v type="int" name="KPOINT">    -1     0     0     0</v>
   <i type="logical" name="LTCTE"> F  </i>
   <i type="logical" name="LTETE"> F  </i>
   <i type="logical" name="LTRIPLET"> F  </i>
   <i type="logical" name="LFXCEPS"> F  </i>
   <i type="logical" name="LFXHEG"> F  </i>
   <i type="int" name="NATURALO">     2</i>
   <i type="logical" name="L2ORDER"> F  </i>
   <i type="logical" name="LMP2LT"> F  </i>
   <i type="logical" name="LUSEW"> F  </i>
   <i name="ENCUTGW">     -2.00000000</i>
   <i name="ENCUTGWSOFT">     -2.00000000</i>
   <i name="ENCUTLF">     -1.00000000</i>
   <i type="int" name="LMAXMP2">    -1</i>
   <i name="SCISSOR">      0.00000000</i>
   <i type="int" name="NOMEGA">     0</i>
   <i type="int" name="NOMEGAR">     0</i>
   <i type="int" name="NBANDSGW">    -1</i>
   <i type="int" name="NBANDSO">    -1</i>
   <i type="int" name="NBANDSV">    -1</i>
   <i type="int" name="NELM">   200</i>
   <i type="int" name="NELMHF">     1</i>
   <i type="int" name="DIM">     3</i>
   <i type="int" name="ANTIRES">     0</i>
   <i name="OMEGAMAX">    -30.00000000</i>
   <i name="OMEGAMIN">    -30.00000000</i>
   <i name="OMEGATL">   -200.00000000</i>
   <i type="int" name="OMEGAGRID">   140</i>
   <i name="CSHIFT">     -0.10000000</i>
   <i type="logical" name="SELFENERGY"> F  </i>
   <i type="logical" name="LSPECTRAL"> F  </i>
   <i type="logical" name="LSPECTRALGW"> F  </i>
   <i type="logical" name="LSINGLES"> F  </i>
   <i type="logical" name="LFERMIGW"> F  </i>
   <i type="logical" name="ODDONLYGW"> F  </i>
   <i type="logical" name="EVENONLYGW"> F  </i>
   <i type="int" name="NKREDLFX">     1</i>
   <i type="int" name="NKREDLFY">     1</i>
   <i type="int" name="NKREDLFZ">     1</i>
   <i type="int" name="MAXMEM">  2800</i>
   <i type="int" name="TELESCOPE">     0</i>
   <i type="int" name="TAUPAR">     1</i>
   <i type="int" name="OMEGAPAR">    -1</i>
   <i name="LAMBDA">      1.00000000</i>
  </separator>
  <separator name="External order field" >
   <i name="OFIELD_KAPPA">      0.00000000</i>
   <v name="OFIELD_K">      0.00000000      0.00000000      0.00000000</v>
   <i name="OFIELD_Q6_NEAR">      0.00000000</i>
   <i name="OFIELD_Q6_FAR">      0.00000000</i>
   <i name="OFIELD_A">      0.00000000</i>
  </separator>
  <separator name="solvation model" >
   <i type="logical" name="LSOL"> F  </i>
  </separator>
 </parameters>
 <atominfo>
  <atoms>     126 </atoms>
  <types>       3 </types>
  <array name="atoms" >
   <dimension dim="1">ion</dimension>
   <field type="string">element</field>
   <field type="int">atomtype</field>
   <set>
    <rc><c>H </c><c>   1</c></rc>
    <rc><c>H </c><c>   1</c></rc>
    <rc><c>H </c><c>   1</c></rc>
    <rc><c>H </c><c>   1</c></rc>
    <rc><c>H </c><c>   1</c></rc>
    <rc><c>H </c><c>   1</c></rc>
    <rc><c>H </c><c>   1</c></rc>
    <rc><c>H </c><c>   1</c></rc>
    <rc><c>H </c><c>   1</c></rc>
    <rc><c>H </c><c>   1</c></rc>
    <rc><c>H </c><c>   1</c></rc>
    <rc><c>H </c><c>   1</c></rc>
    <rc><c>H </c><c>   1</c></rc>
    <rc><c>H </c><c>   1</c></rc>
    <rc><c>H </c><c>   1</c></rc>
    <rc><c>H </c><c>   1</c></rc>
    <rc><c>H </c><c>   1</c></rc>
    <rc><c>H </c><c>   1</c></rc>
    <rc><c>H </c><c>   1</c></rc>
    <rc><c>H </c><c>   1</c></rc>
    <rc><c>H </c><c>   1</c></rc>
    <rc><c>H </c><c>   1</c></rc>
    <rc><c>H </c><c>   1</c></rc>
    <rc><c>H </c><c>   1</c></rc>
    <rc><c>H </c><c>   1</c></rc>
    <rc><c>H </c><c>   1</c></rc>
    <rc><c>H </c><c>   1</c></rc>
    <rc><c>H </c><c>   1</c></rc>
    <rc><c>H </c><c>   1</c></rc>
    <rc><c>H </c><c>   1</c></rc>
    <rc><c>H </c><c>   1</c></rc>
    <rc><c>H </c><c>   1</c></rc>
    <rc><c>H </c><c>   1</c></rc>
    <rc><c>H </c><c>   1</c></rc>
    <rc><c>H </c><c>   1</c></rc>
    <rc><c>H </c><c>   1</c></rc>
    <rc><c>H </c><c>   1</c></rc>
    <rc><c>H </c><c>   1</c></rc>
    <rc><c>H </c><c>   1</c></rc>
    <rc><c>H </c><c>   1</c></rc>
    <rc><c>H </c><c>   1</c></rc>
    <rc><c>H </c><c>   1</c></rc>
    <rc><c>H </c><c>   1</c></rc>
    <rc><c>H </c><c>   1</c></rc>
    <rc><c>H </c><c>   1</c></rc>
    <rc><c>H </c><c>   1</c></rc>
    <rc><c>C </c><c>   2</c></rc>
    <rc><c>C </c><c>   2</c></rc>
    <rc><c>C </c><c>   2</c></rc>
    <rc><c>C </c><c>   2</c></rc>
    <rc><c>C </c><c>   2</c></rc>
    <rc><c>C </c><c>   2</c></rc>
    <rc><c>C </c><c>   2</c></rc>
    <rc><c>C </c><c>   2</c></rc>
    <rc><c>C </c><c>   2</c></rc>
    <rc><c>C </c><c>   2</c></rc>
    <rc><c>C </c><c>   2</c></rc>
    <rc><c>C </c><c>   2</c></rc>
    <rc><c>C </c><c>   2</c></rc>
    <rc><c>C </c><c>   2</c></rc>
    <rc><c>C </c><c>   2</c></rc>
    <rc><c>C </c><c>   2</c></rc>
    <rc><c>C </c><c>   2</c></rc>
    <rc><c>C </c><c>   2</c></rc>
    <rc><c>C </c><c>   2</c></rc>
    <rc><c>C </c><c>   2</c></rc>
    <rc><c>C </c><c>   2</c></rc>
    <rc><c>C </c><c>   2</c></rc>
    <rc><c>C </c><c>   2</c></rc>
    <rc><c>C </c><c>   2</c></rc>
    <rc><c>C </c><c>   2</c></rc>
    <rc><c>C </c><c>   2</c></rc>
    <rc><c>C </c><c>   2</c></rc>
    <rc><c>C </c><c>   2</c></rc>
    <rc><c>C </c><c>   2</c></rc>
    <rc><c>C </c><c>   2</c></rc>
    <rc><c>C </c><c>   2</c></rc>
    <rc><c>C </c><c>   2</c></rc>
    <rc><c>C </c><c>   2</c></rc>
    <rc><c>C </c><c>   2</c></rc>
    <rc><c>C </c><c>   2</c></rc>
    <rc><c>C </c><c>   2</c></rc>
    <rc><c>C </c><c>   2</c></rc>
    <rc><c>C </c><c>   2</c></rc>
    <rc><c>C </c><c>   2</c></rc>
    <rc><c>C </c><c>   2</c></rc>
    <rc><c>C </c><c>   2</c></rc>
    <rc><c>C </c><c>   2</c></rc>
    <rc><c>C </c><c>   2</c></rc>
    <rc><c>C </c><c>   2</c></rc>
    <rc><c>C </c><c>   2</c></rc>
    <rc><c>C </c><c>   2</c></rc>
    <rc><c>C </c><c>   2</c></rc>
    <rc><c>C </c><c>   2</c></rc>
    <rc><c>C </c><c>   2</c></rc>
    <rc><c>C </c><c>   2</c></rc>
    <rc><c>C </c><c>   2</c></rc>
    <rc><c>C </c><c>   2</c></rc>
    <rc><c>C </c><c>   2</c></rc>
    <rc><c>C </c><c>   2</c></rc>
    <rc><c>C </c><c>   2</c></rc>
    <rc><c>C </c><c>   2</c></rc>
    <rc><c>C </c><c>   2</c></rc>
    <rc><c>C </c><c>   2</c></rc>
    <rc><c>C </c><c>   2</c></rc>
    <rc><c>C </c><c>   2</c></rc>
    <rc><c>C </c><c>   2</c></rc>
    <rc><c>C </c><c>   2</c></rc>
    <rc><c>C </c><c>   2</c></rc>
    <rc><c>C </c><c>   2</c></rc>
    <rc><c>C </c><c>   2</c></rc>
    <rc><c>C </c><c>   2</c></rc>
    <rc><c>C </c><c>   2</c></rc>
    <rc><c>C </c><c>   2</c></rc>
    <rc><c>C </c><c>   2</c></rc>
    <rc><c>C </c><c>   2</c></rc>
    <rc><c>C </c><c>   2</c></rc>
    <rc><c>C </c><c>   2</c></rc>
    <rc><c>N </c><c>   3</c></rc>
    <rc><c>N </c><c>   3</c></rc>
    <rc><c>N </c><c>   3</c></rc>
    <rc><c>N </c><c>   3</c></rc>
    <rc><c>N </c><c>   3</c></rc>
    <rc><c>N </c><c>   3</c></rc>
    <rc><c>N </c><c>   3</c></rc>
    <rc><c>N </c><c>   3</c></rc>
   </set>
  </array>
  <array name="atomtypes" >
   <dimension dim="1">type</dimension>
   <field type="int">atomspertype</field>
   <field type="string">element</field>
   <field>mass</field>
   <field>valence</field>
   <field type="string">pseudopotential</field>
   <set>
    <rc><c>  46</c><c>H </c><c>      1.00000000</c><c>      1.00000000</c><c>  PAW_PBE H 15Jun2001                   </c></rc>
    <rc><c>  72</c><c>C </c><c>     12.01100000</c><c>      4.00000000</c><c>  PAW_PBE C 08Apr2002                   </c></rc>
    <rc><c>   8</c><c>N </c><c>     14.00100000</c><c>      5.00000000</c><c>  PAW_PBE N 08Apr2002                   </c></rc>
   </set>
  </array>
 </atominfo>
 <structure name="initialpos" >
  <crystal>
   <varray name="basis" >
    <v>      29.93518946       0.04618947       0.00000000 </v>
    <v>       0.03256915      29.94276047       0.00000000 </v>
    <v>       0.00000000       0.00000000      20.00000000 </v>
   </varray>
   <i name="volume">  17926.81406218 </i>
   <varray name="rec_basis" >
    <v>       0.03340556      -0.00003634       0.00000000 </v>
    <v>      -0.00005153       0.03339711       0.00000000 </v>
    <v>       0.00000000       0.00000000       0.05000000 </v>
   </varray>
  </crystal>
  <varray name="positions" >
   <v>       0.02259739       0.74544434       0.36820317 </v>
   <v>       0.02476540       0.82857406       0.37624146 </v>
   <v>       0.90867684       0.84275452       0.48099201 </v>
   <v>       0.84447967       0.90567586       0.48672084 </v>
   <v>       0.97071623       0.97020863       0.48272538 </v>
   <v>       0.02138536       0.02246692       0.48107272 </v>
   <v>       0.08729617       0.84445635       0.47753878 </v>
   <v>       0.14993582       0.90858969       0.47487509 </v>
   <v>       0.16363726       0.02435511       0.37515268 </v>
   <v>       0.24684945       0.02247795       0.36744346 </v>
   <v>       0.14761317       0.08701034       0.48087188 </v>
   <v>       0.08321417       0.14999203       0.48429919 </v>
   <v>       0.84206554       0.08397633       0.48866646 </v>
   <v>       0.90469175       0.14821839       0.48986647 </v>
   <v>       0.96609144       0.17233444       0.39154416 </v>
   <v>       0.96381505       0.25492475       0.40094841 </v>
   <v>       0.81997816       0.96871583       0.39207673 </v>
   <v>       0.73740870       0.96666756       0.40186796 </v>
   <v>       0.02239725       0.47182591       0.37991930 </v>
   <v>       0.02259550       0.38953161       0.36884689 </v>
   <v>       0.98041626       0.61651648       0.39894646 </v>
   <v>       0.97700885       0.53388408       0.38789667 </v>
   <v>       0.01275182       0.31640963       0.41338279 </v>
   <v>       0.52056618       0.02436924       0.38067746 </v>
   <v>       0.60290891       0.02497813       0.37009507 </v>
   <v>       0.37640618       0.98078100       0.39844029 </v>
   <v>       0.45912889       0.97839027       0.38803753 </v>
   <v>       0.67595946       0.01515228       0.41484934 </v>
   <v>       0.96990137       0.73861608       0.56827189 </v>
   <v>       0.97147036       0.82122521       0.57571014 </v>
   <v>       0.17097554       0.96946950       0.57364148 </v>
   <v>       0.25371854       0.96831285       0.56661167 </v>
   <v>       0.01928924       0.16311496       0.59088420 </v>
   <v>       0.01621577       0.24613344       0.60103188 </v>
   <v>       0.74656214       0.01784640       0.60260170 </v>
   <v>       0.82955723       0.02049859       0.59220537 </v>
   <v>       0.02138765       0.52009446       0.59211169 </v>
   <v>       0.02385273       0.60237292       0.60298472 </v>
   <v>       0.97528953       0.37670094       0.57110980 </v>
   <v>       0.97426404       0.45939120       0.58238123 </v>
   <v>       0.01626874       0.67593138       0.55784440 </v>
   <v>       0.47143472       0.02267267       0.59247607 </v>
   <v>       0.38909051       0.02417561       0.60268862 </v>
   <v>       0.61568127       0.97792131       0.57253073 </v>
   <v>       0.53296715       0.97637168       0.58325709 </v>
   <v>       0.31584126       0.01591397       0.55707548 </v>
   <v>       0.91308833       0.87866854       0.48240865 </v>
   <v>       0.88030351       0.91079292       0.48495780 </v>
   <v>       0.90151362       0.95370554       0.48468165 </v>
   <v>       0.95556773       0.90076171       0.48194441 </v>
   <v>       0.99796521       0.88045152       0.47986229 </v>
   <v>       0.03920339       0.90328024       0.47915984 </v>
   <v>       0.09002185       0.95531115       0.47887863 </v>
   <v>       0.11393563       0.91281463       0.47683474 </v>
   <v>       0.08225244       0.88037220       0.47776690 </v>
   <v>       0.11180921       0.99710450       0.47832753 </v>
   <v>       0.09054026       0.03902701       0.47961092 </v>
   <v>       0.03646679       0.09191840       0.48362523 </v>
   <v>       0.07891593       0.11405023       0.48316269 </v>
   <v>       0.11175480       0.08193058       0.48113536 </v>
   <v>       0.99407915       0.11224434       0.48555882 </v>
   <v>       0.95281774       0.08946957       0.48512277 </v>
   <v>       0.90206651       0.03739371       0.48594466 </v>
   <v>       0.87809756       0.07985712       0.48763874 </v>
   <v>       0.90975386       0.11233143       0.48787560 </v>
   <v>       0.88025781       0.99562229       0.48646640 </v>
   <v>       0.83054445       0.99524852       0.49113630 </v>
   <v>       0.73627194       0.99358195       0.50245984 </v>
   <v>       0.75747686       0.97934595       0.44324411 </v>
   <v>       0.80389837       0.98008243       0.43803897 </v>
   <v>       0.99339350       0.16196099       0.49017294 </v>
   <v>       0.99137149       0.25622448       0.50115776 </v>
   <v>       0.97687105       0.23492714       0.44221157 </v>
   <v>       0.97778415       0.18851015       0.43717654 </v>
   <v>       0.16155358       0.99751038       0.47525681 </v>
   <v>       0.18351641       0.01266254       0.41743886 </v>
   <v>       0.22984711       0.01169954       0.41286695 </v>
   <v>       0.25593259       0.99680547       0.46704385 </v>
   <v>       0.99861714       0.83071678       0.47676129 </v>
   <v>       0.01325346       0.80872496       0.41858978 </v>
   <v>       0.99751763       0.73631587       0.46812867 </v>
   <v>       0.01213976       0.76241634       0.41387199 </v>
   <v>       0.98934449       0.59494391       0.44081396 </v>
   <v>       0.98788565       0.54883606       0.43489207 </v>
   <v>       0.99846939       0.47178104       0.48204324 </v>
   <v>       0.01137598       0.45123307       0.42175315 </v>
   <v>       0.01179896       0.40494577       0.41567732 </v>
   <v>       0.99910127       0.37758065       0.46947384 </v>
   <v>       0.00089001       0.32907422       0.46231839 </v>
   <v>       0.39766214       0.98993769       0.44051284 </v>
   <v>       0.44382703       0.98904404       0.43494389 </v>
   <v>       0.52056963       0.00042744       0.48278854 </v>
   <v>       0.54116633       0.01348342       0.42264616 </v>
   <v>       0.58747447       0.01413238       0.41684796 </v>
   <v>       0.61483079       0.00153911       0.47081051 </v>
   <v>       0.66334818       0.00331131       0.46377233 </v>
   <v>       0.80922824       0.00913321       0.55027107 </v>
   <v>       0.76298422       0.00773134       0.55632242 </v>
   <v>       0.00761831       0.18336658       0.54898541 </v>
   <v>       0.00597987       0.22961560       0.55492592 </v>
   <v>       0.23408594       0.98157302       0.52510876 </v>
   <v>       0.18761115       0.98184174       0.52878665 </v>
   <v>       0.98332843       0.80464271       0.53044557 </v>
   <v>       0.98286149       0.75818608       0.52656787 </v>
   <v>       0.00242786       0.61496362       0.50144916 </v>
   <v>       0.99917728       0.52081643       0.48912055 </v>
   <v>       0.01171310       0.54099889       0.54982557 </v>
   <v>       0.01341324       0.58726384       0.55579727 </v>
   <v>       0.98556464       0.39797986       0.52965633 </v>
   <v>       0.98541150       0.44411692       0.53571628 </v>
   <v>       0.00524150       0.66342537       0.50843079 </v>
   <v>       0.37718455       0.00273590       0.50100669 </v>
   <v>       0.47147877       0.00062431       0.48940839 </v>
   <v>       0.45085235       0.01282570       0.54997670 </v>
   <v>       0.40452950       0.01396820       0.55558609 </v>
   <v>       0.59439792       0.98801933       0.53091585 </v>
   <v>       0.54823494       0.98761019       0.53667992 </v>
   <v>       0.32863910       0.00506068       0.50770220 </v>
   <v>       0.94685416       0.94592611       0.48309965 </v>
   <v>       0.04472128       0.94872056       0.48018543 </v>
   <v>       0.04521149       0.04678827       0.48110780 </v>
   <v>       0.94733914       0.04401954       0.48385109 </v>
   <v>       0.99052341       0.30250097       0.51036732 </v>
   <v>       0.30225289       0.99609860       0.45878565 </v>
   <v>       0.99643191       0.69002258       0.45963811 </v>
   <v>       0.68999601       0.99288273       0.51179520 </v>
  </varray>
 </structure>
 <calculation>
  <scstep>
   <time name="dav">  688.84  696.69</time>
   <time name="total">  689.10  696.97</time>
   <energy>
    <i name="alphaZ">     36.78281651 </i>
    <i name="ewald">  50139.35125223 </i>
    <i name="hartreedc"> -60973.56813312 </i>
    <i name="XCdc">   1274.13190893 </i>
    <i name="pawpsdc">  34300.69642239 </i>
    <i name="pawaedc"> -34362.43477958 </i>
    <i name="eentropy">     -0.00000000 </i>
    <i name="bandstr">  -4580.74985903 </i>
    <i name="atom">  13285.34093049 </i>
    <i name="e_fr_energy">   -880.44944119 </i>
    <i name="e_wo_entrp">   -880.44944119 </i>
    <i name="e_0_energy">   -880.44944119 </i>
   </energy>
  </scstep>
  <scstep>
   <time name="dav">  814.66  824.01</time>
   <time name="total">  814.67  824.01</time>
   <energy>
    <i name="e_fr_energy">   -880.85082216 </i>
    <i name="e_wo_entrp">   -880.85082216 </i>
    <i name="e_0_energy">   -880.85082216 </i>
   </energy>
  </scstep>
  <scstep>
   <time name="dav">  888.21  898.50</time>
   <time name="total">  888.21  898.50</time>
   <energy>
    <i name="e_fr_energy">   -880.86146386 </i>
    <i name="e_wo_entrp">   -880.86146386 </i>
    <i name="e_0_energy">   -880.86146386 </i>
   </energy>
  </scstep>
  <scstep>
   <time name="dav">  788.86  797.98</time>
   <time name="total">  788.86  797.98</time>
   <energy>
    <i name="e_fr_energy">   -880.86162083 </i>
    <i name="e_wo_entrp">   -880.86162083 </i>
    <i name="e_0_energy">   -880.86162083 </i>
   </energy>
  </scstep>
  <scstep>
   <time name="dav">  761.87  770.71</time>
   <time name="total">  761.87  770.71</time>
   <energy>
    <i name="alphaZ">     36.78281651 </i>
    <i name="ewald">  50139.35125223 </i>
    <i name="hartreedc"> -60973.56813312 </i>
    <i name="XCdc">   1274.13190893 </i>
    <i name="pawpsdc">  34300.69642239 </i>
    <i name="pawaedc"> -34362.43477958 </i>
    <i name="eentropy">     -0.00000000 </i>
    <i name="bandstr">  -4581.16204584 </i>
    <i name="atom">  13285.34093049 </i>
    <i name="e_fr_energy">   -880.86162800 </i>
    <i name="e_wo_entrp">   -880.86162800 </i>
    <i name="e_0_energy">   -880.86162800 </i>
   </energy>
  </scstep>
  <structure>
   <crystal>
    <varray name="basis" >
     <v>      29.93518946       0.04618947       0.00000000 </v>
     <v>       0.03256915      29.94276047       0.00000000 </v>
     <v>       0.00000000       0.00000000      20.00000000 </v>
    </varray>
    <i name="volume">  17926.81406218 </i>
    <varray name="rec_basis" >
     <v>       0.03340556      -0.00003634       0.00000000 </v>
     <v>      -0.00005153       0.03339711       0.00000000 </v>
     <v>       0.00000000       0.00000000       0.05000000 </v>
    </varray>
   </crystal>
   <varray name="positions" >
    <v>       0.02259739       0.74544434       0.36820317 </v>
    <v>       0.02476540       0.82857406       0.37624146 </v>
    <v>       0.90867684       0.84275452       0.48099201 </v>
    <v>       0.84447967       0.90567586       0.48672084 </v>
    <v>       0.97071623       0.97020863       0.48272538 </v>
    <v>       0.02138536       0.02246692       0.48107272 </v>
    <v>       0.08729617       0.84445635       0.47753878 </v>
    <v>       0.14993582       0.90858969       0.47487509 </v>
    <v>       0.16363726       0.02435511       0.37515268 </v>
    <v>       0.24684945       0.02247795       0.36744346 </v>
    <v>       0.14761317       0.08701034       0.48087188 </v>
    <v>       0.08321417       0.14999203       0.48429919 </v>
    <v>       0.84206554       0.08397633       0.48866646 </v>
    <v>       0.90469175       0.14821839       0.48986647 </v>
    <v>       0.96609144       0.17233444       0.39154416 </v>
    <v>       0.96381505       0.25492475       0.40094841 </v>
    <v>       0.81997816       0.96871583       0.39207673 </v>
    <v>       0.73740870       0.96666756       0.40186796 </v>
    <v>       0.02239725       0.47182591       0.37991930 </v>
    <v>       0.02259550       0.38953161       0.36884689 </v>
    <v>       0.98041626       0.61651648       0.39894646 </v>
    <v>       0.97700885       0.53388408       0.38789667 </v>
    <v>       0.01275182       0.31640963       0.41338279 </v>
    <v>       0.52056618       0.02436924       0.38067746 </v>
    <v>       0.60290891       0.02497813       0.37009507 </v>
    <v>       0.37640618       0.98078100       0.39844029 </v>
    <v>       0.45912889       0.97839027       0.38803753 </v>
    <v>       0.67595946       0.01515228       0.41484934 </v>
    <v>       0.96990137       0.73861608       0.56827189 </v>
    <v>       0.97147036       0.82122521       0.57571014 </v>
    <v>       0.17097554       0.96946950       0.57364148 </v>
    <v>       0.25371854       0.96831285       0.56661167 </v>
    <v>       0.01928924       0.16311496       0.59088420 </v>
    <v>       0.01621577       0.24613344       0.60103188 </v>
    <v>       0.74656214       0.01784640       0.60260170 </v>
    <v>       0.82955723       0.02049859       0.59220537 </v>
    <v>       0.02138765       0.52009446       0.59211169 </v>
    <v>       0.02385273       0.60237292       0.60298472 </v>
    <v>       0.97528953       0.37670094       0.57110980 </v>
    <v>       0.97426404       0.45939120       0.58238123 </v>
    <v>       0.01626874       0.67593138       0.55784440 </v>
    <v>       0.47143472       0.02267267       0.59247607 </v>
    <v>       0.38909051       0.02417561       0.60268862 </v>
    <v>       0.61568127       0.97792131       0.57253073 </v>
    <v>       0.53296715       0.97637168       0.58325709 </v>
    <v>       0.31584126       0.01591397       0.55707548 </v>
    <v>       0.91308833       0.87866854       0.48240865 </v>
    <v>       0.88030351       0.91079292       0.48495780 </v>
    <v>       0.90151362       0.95370554       0.48468165 </v>
    <v>       0.95556773       0.90076171       0.48194441 </v>
    <v>       0.99796521       0.88045152       0.47986229 </v>
    <v>       0.03920339       0.90328024       0.47915984 </v>
    <v>       0.09002185       0.95531115       0.47887863 </v>
    <v>       0.11393563       0.91281463       0.47683474 </v>
    <v>       0.08225244       0.88037220       0.47776690 </v>
    <v>       0.11180921       0.99710450       0.47832753 </v>
    <v>       0.09054026       0.03902701       0.47961092 </v>
    <v>       0.03646679       0.09191840       0.48362523 </v>
    <v>       0.07891593       0.11405023       0.48316269 </v>
    <v>       0.11175480       0.08193058       0.48113536 </v>
    <v>       0.99407915       0.11224434       0.48555882 </v>
    <v>       0.95281774       0.08946957       0.48512277 </v>
    <v>       0.90206651       0.03739371       0.48594466 </v>
    <v>       0.87809756       0.07985712       0.48763874 </v>
    <v>       0.90975386       0.11233143       0.48787560 </v>
    <v>       0.88025781       0.99562229       0.48646640 </v>
    <v>       0.83054445       0.99524852       0.49113630 </v>
    <v>       0.73627194       0.99358195       0.50245984 </v>
    <v>       0.75747686       0.97934595       0.44324411 </v>
    <v>       0.80389837       0.98008243       0.43803897 </v>
    <v>       0.99339350       0.16196099       0.49017294 </v>
    <v>       0.99137149       0.25622448       0.50115776 </v>
    <v>       0.97687105       0.23492714       0.44221157 </v>
    <v>       0.97778415       0.18851015       0.43717654 </v>
    <v>       0.16155358       0.99751038       0.47525681 </v>
    <v>       0.18351641       0.01266254       0.41743886 </v>
    <v>       0.22984711       0.01169954       0.41286695 </v>
    <v>       0.25593259       0.99680547       0.46704385 </v>
    <v>       0.99861714       0.83071678       0.47676129 </v>
    <v>       0.01325346       0.80872496       0.41858978 </v>
    <v>       0.99751763       0.73631587       0.46812867 </v>
    <v>       0.01213976       0.76241634       0.41387199 </v>
    <v>       0.98934449       0.59494391       0.44081396 </v>
    <v>       0.98788565       0.54883606       0.43489207 </v>
    <v>       0.99846939       0.47178104       0.48204324 </v>
    <v>       0.01137598       0.45123307       0.42175315 </v>
    <v>       0.01179896       0.40494577       0.41567732 </v>
    <v>       0.99910127       0.37758065       0.46947384 </v>
    <v>       0.00089001       0.32907422       0.46231839 </v>
    <v>       0.39766214       0.98993769       0.44051284 </v>
    <v>       0.44382703       0.98904404       0.43494389 </v>
    <v>       0.52056963       0.00042744       0.48278854 </v>
    <v>       0.54116633       0.01348342       0.42264616 </v>
    <v>       0.58747447       0.01413238       0.41684796 </v>
    <v>       0.61483079       0.00153911       0.47081051 </v>
    <v>       0.66334818       0.00331131       0.46377233 </v>
    <v>       0.80922824       0.00913321       0.55027107 </v>
    <v>       0.76298422       0.00773134       0.55632242 </v>
    <v>       0.00761831       0.18336658       0.54898541 </v>
    <v>       0.00597987       0.22961560       0.55492592 </v>
    <v>       0.23408594       0.98157302       0.52510876 </v>
    <v>       0.18761115       0.98184174       0.52878665 </v>
    <v>       0.98332843       0.80464271       0.53044557 </v>
    <v>       0.98286149       0.75818608       0.52656787 </v>
    <v>       0.00242786       0.61496362       0.50144916 </v>
    <v>       0.99917728       0.52081643       0.48912055 </v>
    <v>       0.01171310       0.54099889       0.54982557 </v>
    <v>       0.01341324       0.58726384       0.55579727 </v>
    <v>       0.98556464       0.39797986       0.52965633 </v>
    <v>       0.98541150       0.44411692       0.53571628 </v>
    <v>       0.00524150       0.66342537       0.50843079 </v>
    <v>       0.37718455       0.00273590       0.50100669 </v>
    <v>       0.47147877       0.00062431       0.48940839 </v>
    <v>       0.45085235       0.01282570       0.54997670 </v>
    <v>       0.40452950       0.01396820       0.55558609 </v>
    <v>       0.59439792       0.98801933       0.53091585 </v>
    <v>       0.54823494       0.98761019       0.53667992 </v>
    <v>       0.32863910       0.00506068       0.50770220 </v>
    <v>       0.94685416       0.94592611       0.48309965 </v>
    <v>       0.04472128       0.94872056       0.48018543 </v>
    <v>       0.04521149       0.04678827       0.48110780 </v>
    <v>       0.94733914       0.04401954       0.48385109 </v>
    <v>       0.99052341       0.30250097       0.51036732 </v>
    <v>       0.30225289       0.99609860       0.45878565 </v>
    <v>       0.99643191       0.69002258       0.45963811 </v>
    <v>       0.68999601       0.99288273       0.51179520 </v>
   </varray>
  </structure>
  <varray name="forces" >
   <v>      -0.00123039      -0.00072420       0.00182761 </v>
   <v>       0.00048621      -0.00055082      -0.00136068 </v>
   <v>      -0.00092234      -0.00205140      -0.00086758 </v>
   <v>      -0.00111598      -0.00048837       0.00203602 </v>
   <v>      -0.00131111       0.00063460       0.00102340 </v>
   <v>       0.00145851       0.00219816      -0.00024918 </v>
   <v>      -0.00042899       0.00445185      -0.00231472 </v>
   <v>      -0.00272591       0.00126656      -0.00230664 </v>
   <v>       0.00222821       0.00101893       0.00089264 </v>
   <v>      -0.00046280       0.00125433       0.00013630 </v>
   <v>      -0.00120973      -0.00087145       0.00072971 </v>
   <v>      -0.00149075       0.00046808      -0.00049574 </v>
   <v>       0.00089700       0.00058725       0.00199582 </v>
   <v>      -0.00075508      -0.00169340       0.00122124 </v>
   <v>      -0.00239818      -0.00105965      -0.00322707 </v>
   <v>       0.00056666       0.00010160       0.00054568 </v>
   <v>      -0.00173118      -0.00017715       0.00165235 </v>
   <v>       0.00200145       0.00020964       0.00004152 </v>
   <v>      -0.00060820      -0.00198641       0.00252071 </v>
   <v>       0.00092313       0.00205550       0.00133446 </v>
   <v>      -0.00019542       0.00157717      -0.00201567 </v>
   <v>       0.00167360      -0.00019657      -0.00087717 </v>
   <v>      -0.00264348       0.00172262       0.00184489 </v>
   <v>       0.00099400       0.00054466       0.00151153 </v>
   <v>      -0.00139864      -0.00086387       0.00313258 </v>
   <v>      -0.00068458       0.00004041       0.00031396 </v>
   <v>      -0.00103611       0.00132049       0.00050722 </v>
   <v>       0.00235486       0.00130426      -0.00358689 </v>
   <v>      -0.00082315      -0.00033814       0.00514469 </v>
   <v>       0.00003137       0.00281887       0.00154950 </v>
   <v>      -0.00134787      -0.00162627       0.00177551 </v>
   <v>       0.00176046      -0.00016044       0.00387453 </v>
   <v>      -0.00079700       0.00037977       0.00101168 </v>
   <v>      -0.00039356      -0.00134788      -0.00050149 </v>
   <v>      -0.00337846      -0.00298486       0.00194491 </v>
   <v>      -0.00123024      -0.00125160      -0.00238383 </v>
   <v>       0.00158225      -0.00086810       0.00024792 </v>
   <v>       0.00170567      -0.00036336       0.00190707 </v>
   <v>       0.00167158      -0.00146886      -0.00025072 </v>
   <v>       0.00088433      -0.00083174      -0.00115713 </v>
   <v>       0.00174369       0.00150678      -0.00117334 </v>
   <v>      -0.00021610       0.00189611      -0.00028307 </v>
   <v>       0.00066690       0.00106332       0.00075560 </v>
   <v>      -0.00043645      -0.00256915       0.00090942 </v>
   <v>      -0.00255521       0.00075747      -0.00059638 </v>
   <v>       0.00250525      -0.00024340       0.00052264 </v>
   <v>       0.00453999       0.00156386      -0.00291465 </v>
   <v>       0.00097631       0.00476749       0.00018824 </v>
   <v>       0.00240858      -0.00689575      -0.00457626 </v>
   <v>      -0.00542733       0.00108070       0.00154494 </v>
   <v>       0.00368637      -0.00357794       0.00179934 </v>
   <v>       0.00380342       0.00049797      -0.00622975 </v>
   <v>       0.00028431      -0.00344597       0.00139983 </v>
   <v>       0.00328065      -0.00415692      -0.00116908 </v>
   <v>      -0.00038673      -0.00662405      -0.00163519 </v>
   <v>       0.00789379      -0.00209228       0.00122657 </v>
   <v>      -0.00423433       0.01008286      -0.00591221 </v>
   <v>       0.00566443      -0.00311673       0.00352403 </v>
   <v>      -0.00145153      -0.00106453      -0.00157448 </v>
   <v>       0.00234381       0.00251998      -0.00044072 </v>
   <v>      -0.00355408       0.00170286      -0.00065156 </v>
   <v>      -0.00339622       0.00026937      -0.00076677 </v>
   <v>       0.00395363       0.00549296       0.00640100 </v>
   <v>      -0.00448561       0.00024643       0.00223848 </v>
   <v>       0.00015284       0.00126714       0.00336443 </v>
   <v>      -0.00545280      -0.00132617       0.00053219 </v>
   <v>       0.00313635      -0.00180458       0.00414560 </v>
   <v>      -0.01035970       0.00065907       0.00245043 </v>
   <v>       0.00391073       0.00162833      -0.00387545 </v>
   <v>      -0.00292595      -0.00542024      -0.00438631 </v>
   <v>       0.00135098      -0.00337413       0.00212649 </v>
   <v>      -0.00001963       0.00272430       0.00002358 </v>
   <v>       0.00267930       0.00117112       0.00090380 </v>
   <v>      -0.00328037       0.00302130      -0.00062809 </v>
   <v>      -0.00550906      -0.00401997      -0.00344552 </v>
   <v>      -0.00264216       0.00722932      -0.00311447 </v>
   <v>      -0.00179795      -0.00100341      -0.00344278 </v>
   <v>       0.01182412      -0.00044227      -0.00669894 </v>
   <v>      -0.00035354       0.00262054      -0.00020343 </v>
   <v>       0.00132367      -0.00121096      -0.00369536 </v>
   <v>      -0.00290398      -0.00327577       0.00007997 </v>
   <v>      -0.00037963      -0.00112769      -0.00459178 </v>
   <v>      -0.00122503      -0.01002957       0.00028751 </v>
   <v>      -0.00031575       0.00827649       0.00078941 </v>
   <v>       0.00060216       0.00484507       0.00702460 </v>
   <v>       0.00421977      -0.00176055      -0.00831698 </v>
   <v>       0.00368967       0.00459119      -0.00935159 </v>
   <v>      -0.00292381      -0.00309980       0.00650914 </v>
   <v>      -0.00192434       0.00252771      -0.00818496 </v>
   <v>       0.00564310       0.00000136      -0.00029162 </v>
   <v>      -0.00401956       0.00057469      -0.00138040 </v>
   <v>      -0.01012284      -0.00181044      -0.00086025 </v>
   <v>       0.00191066      -0.00132263      -0.00534144 </v>
   <v>      -0.00407324       0.00127951      -0.00457760 </v>
   <v>       0.01079287       0.00209906       0.00137084 </v>
   <v>      -0.00476792      -0.00025248      -0.00209393 </v>
   <v>      -0.00303666       0.00869124       0.00336154 </v>
   <v>       0.00338244      -0.00057200       0.00019530 </v>
   <v>       0.00390385       0.00331965       0.00218568 </v>
   <v>       0.00261341      -0.00254380       0.00238888 </v>
   <v>      -0.00416922      -0.00228417       0.00190058 </v>
   <v>       0.00394725      -0.00624916      -0.00014437 </v>
   <v>      -0.00217014      -0.00351538      -0.00362998 </v>
   <v>       0.00090542       0.00606245       0.00066601 </v>
   <v>       0.00356469       0.00425538       0.00175426 </v>
   <v>       0.00176812      -0.00271210      -0.00051008 </v>
   <v>      -0.00314025      -0.00292729      -0.00125074 </v>
   <v>      -0.00108952       0.00276354      -0.00109548 </v>
   <v>       0.00047779       0.00737062       0.00084460 </v>
   <v>       0.00194365      -0.00731602       0.00153184 </v>
   <v>       0.00021851      -0.00828155      -0.00566139 </v>
   <v>      -0.00900554       0.00297758       0.00268393 </v>
   <v>       0.00639545      -0.00300045       0.00158224 </v>
   <v>      -0.00461274      -0.00093848       0.00492817 </v>
   <v>       0.00204962       0.00196248       0.00239236 </v>
   <v>      -0.00593212      -0.00064892       0.00310153 </v>
   <v>       0.00698125      -0.00075730       0.00302947 </v>
   <v>       0.01800556       0.00007512       0.00757653 </v>
   <v>      -0.00435262       0.00080994       0.00173669 </v>
   <v>      -0.00357219       0.00469368       0.00079175 </v>
   <v>      -0.00048375      -0.00092902      -0.00114950 </v>
   <v>       0.00186792      -0.00659287       0.00128784 </v>
   <v>      -0.00317323      -0.01045673       0.00715572 </v>
   <v>      -0.01933682       0.00155759      -0.00582197 </v>
   <v>       0.00133855       0.00780272      -0.00880262 </v>
   <v>       0.00996468       0.00243607       0.01012851 </v>
  </varray>
  <varray name="stress" >
   <v>      -0.00526538      -0.00276081       0.00130177 </v>
   <v>      -0.00276081       0.00341652      -0.00474789 </v>
   <v>       0.00130177      -0.00474789      -0.11678093 </v>
  </varray>
  <energy>
   <i name="e_fr_energy">   -883.38196672 </i>
   <i name="e_wo_entrp">   -883.38196672 </i>
   <i name="e_0_energy">     -0.00000000 </i>
  </energy>
  <time name="totalsc"> 4744.22 4801.46</time>
  <eigenvalues>
   <array>
    <dimension dim="1">band</dimension>
    <dimension dim="2">kpoint</dimension>
    <dimension dim="3">spin</dimension>
    <field>eigene</field>
    <field>occ</field>
    <set>
     <set comment="spin 1">
      <set comment="kpoint 1">
       <r>  -24.3107    1.0000 </r>
       <r>  -24.2755    1.0000 </r>
       <r>  -23.1731    1.0000 </r>
       <r>  -23.1719    1.0000 </r>
       <r>  -23.1647    1.0000 </r>
       <r>  -23.1628    1.0000 </r>
       <r>  -23.0555    1.0000 </r>
       <r>  -22.9886    1.0000 </r>
       <r>  -21.6570    1.0000 </r>
       <r>  -21.6555    1.0000 </r>
       <r>  -21.2271    1.0000 </r>
       <r>  -21.2229    1.0000 </r>
       <r>  -21.1512    1.0000 </r>
       <r>  -20.9922    1.0000 </r>
       <r>  -20.9369    1.0000 </r>
       <r>  -20.9301    1.0000 </r>
       <r>  -20.0973    1.0000 </r>
       <r>  -19.6945    1.0000 </r>
       <r>  -19.6921    1.0000 </r>
       <r>  -19.5844    1.0000 </r>
       <r>  -19.4979    1.0000 </r>
       <r>  -19.2598    1.0000 </r>
       <r>  -19.1770    1.0000 </r>
       <r>  -18.8612    1.0000 </r>
       <r>  -18.6086    1.0000 </r>
       <r>  -18.5781    1.0000 </r>
       <r>  -18.5721    1.0000 </r>
       <r>  -18.4816    1.0000 </r>
       <r>  -18.3733    1.0000 </r>
       <r>  -18.3656    1.0000 </r>
       <r>  -18.2804    1.0000 </r>
       <r>  -18.2650    1.0000 </r>
       <r>  -18.2383    1.0000 </r>
       <r>  -18.2291    1.0000 </r>
       <r>  -18.2002    1.0000 </r>
       <r>  -18.1706    1.0000 </r>
       <r>  -17.9858    1.0000 </r>
       <r>  -17.5697    1.0000 </r>
       <r>  -17.4633    1.0000 </r>
       <r>  -17.4042    1.0000 </r>
       <r>  -17.3787    1.0000 </r>
       <r>  -16.4121    1.0000 </r>
       <r>  -16.1708    1.0000 </r>
       <r>  -16.1598    1.0000 </r>
       <r>  -16.0040    1.0000 </r>
       <r>  -15.4289    1.0000 </r>
       <r>  -15.4205    1.0000 </r>
       <r>  -15.3026    1.0000 </r>
       <r>  -15.2922    1.0000 </r>
       <r>  -15.0765    1.0000 </r>
       <r>  -14.8854    1.0000 </r>
       <r>  -14.8085    1.0000 </r>
       <r>  -14.7972    1.0000 </r>
       <r>  -14.7371    1.0000 </r>
       <r>  -14.7097    1.0000 </r>
       <r>  -14.5877    1.0000 </r>
       <r>  -14.4919    1.0000 </r>
       <r>  -14.3773    1.0000 </r>
       <r>  -14.3014    1.0000 </r>
       <r>  -14.2629    1.0000 </r>
       <r>  -14.2295    1.0000 </r>
       <r>  -14.1889    1.0000 </r>
       <r>  -13.8088    1.0000 </r>
       <r>  -13.7952    1.0000 </r>
       <r>  -13.7781    1.0000 </r>
       <r>  -13.6036    1.0000 </r>
       <r>  -13.5772    1.0000 </r>
       <r>  -13.5210    1.0000 </r>
       <r>  -13.3840    1.0000 </r>
       <r>  -13.1329    1.0000 </r>
       <r>  -12.9912    1.0000 </r>
       <r>  -12.8418    1.0000 </r>
       <r>  -12.8113    1.0000 </r>
       <r>  -12.7087    1.0000 </r>
       <r>  -12.6485    1.0000 </r>
       <r>  -12.4992    1.0000 </r>
       <r>  -12.3283    1.0000 </r>
       <r>  -12.3111    1.0000 </r>
       <r>  -12.0646    1.0000 </r>
       <r>  -11.9820    1.0000 </r>
       <r>  -11.9265    1.0000 </r>
       <r>  -11.8833    1.0000 </r>
       <r>  -11.8494    1.0000 </r>
       <r>  -11.5344    1.0000 </r>
       <r>  -11.4877    1.0000 </r>
       <r>  -11.4530    1.0000 </r>
       <r>  -11.2462    1.0000 </r>
       <r>  -11.1082    1.0000 </r>
       <r>  -11.0577    1.0000 </r>
       <r>  -11.0267    1.0000 </r>
       <r>  -10.9908    1.0000 </r>
       <r>  -10.8768    1.0000 </r>
       <r>  -10.8248    1.0000 </r>
       <r>  -10.7502    1.0000 </r>
       <r>  -10.6496    1.0000 </r>
       <r>  -10.6204    1.0000 </r>
       <r>  -10.6187    1.0000 </r>
       <r>  -10.5276    1.0000 </r>
       <r>  -10.5170    1.0000 </r>
       <r>  -10.4857    1.0000 </r>
       <r>  -10.4652    1.0000 </r>
       <r>  -10.3562    1.0000 </r>
       <r>  -10.3144    1.0000 </r>
       <r>  -10.2893    1.0000 </r>
       <r>  -10.2573    1.0000 </r>
       <r>  -10.2478    1.0000 </r>
       <r>  -10.2469    1.0000 </r>
       <r>  -10.2155    1.0000 </r>
       <r>  -10.1779    1.0000 </r>
       <r>  -10.1430    1.0000 </r>
       <r>  -10.1022    1.0000 </r>
       <r>  -10.0407    1.0000 </r>
       <r>  -10.0386    1.0000 </r>
       <r>   -9.9792    1.0000 </r>
       <r>   -9.9196    1.0000 </r>
       <r>   -9.9150    1.0000 </r>
       <r>   -9.9015    1.0000 </r>
       <r>   -9.8879    1.0000 </r>
       <r>   -9.8121    1.0000 </r>
       <r>   -9.5995    1.0000 </r>
       <r>   -9.5985    1.0000 </r>
       <r>   -9.5953    1.0000 </r>
       <r>   -9.5939    1.0000 </r>
       <r>   -9.5365    1.0000 </r>
       <r>   -9.4731    1.0000 </r>
       <r>   -9.4203    1.0000 </r>
       <r>   -9.3794    1.0000 </r>
       <r>   -9.1738    1.0000 </r>
       <r>   -9.1474    1.0000 </r>
       <r>   -9.1425    1.0000 </r>
       <r>   -9.0613    1.0000 </r>
       <r>   -9.0523    1.0000 </r>
       <r>   -8.8836    1.0000 </r>
       <r>   -8.8649    1.0000 </r>
       <r>   -8.6642    1.0000 </r>
       <r>   -8.6492    1.0000 </r>
       <r>   -8.6270    1.0000 </r>
       <r>   -8.4975    1.0000 </r>
       <r>   -8.4860    1.0000 </r>
       <r>   -8.4139    1.0000 </r>
       <r>   -8.3725    1.0000 </r>
       <r>   -8.3184    1.0000 </r>
       <r>   -8.3014    1.0000 </r>
       <r>   -8.2913    1.0000 </r>
       <r>   -8.2586    1.0000 </r>
       <r>   -8.2487    1.0000 </r>
       <r>   -8.1548    1.0000 </r>
       <r>   -8.1249    1.0000 </r>
       <r>   -8.0653    1.0000 </r>
       <r>   -8.0221    1.0000 </r>
       <r>   -7.9974    1.0000 </r>
       <r>   -7.9968    1.0000 </r>
       <r>   -7.8821    1.0000 </r>
       <r>   -7.8653    1.0000 </r>
       <r>   -7.8595    1.0000 </r>
       <r>   -7.7449    1.0000 </r>
       <r>   -7.4079    1.0000 </r>
       <r>   -6.9990    1.0000 </r>
       <r>   -6.9968    1.0000 </r>
       <r>   -6.6603    1.0000 </r>
       <r>   -6.5226    1.0000 </r>
       <r>   -6.5121    1.0000 </r>
       <r>   -6.4892    1.0000 </r>
       <r>   -6.3889    1.0000 </r>
       <r>   -6.3886    1.0000 </r>
       <r>   -6.3632    1.0000 </r>
       <r>   -6.3616    1.0000 </r>
       <r>   -6.2202    1.0000 </r>
       <r>   -6.1749    1.0000 </r>
       <r>   -6.1695    1.0000 </r>
       <r>   -6.1192    1.0000 </r>
       <r>   -6.1143    1.0000 </r>
       <r>   -6.0583    1.0000 </r>
       <r>   -6.0578    1.0000 </r>
       <r>   -6.0192    1.0000 </r>
       <r>   -5.8645    1.0000 </r>
       <r>   -5.8601    1.0000 </r>
       <r>   -5.6627    1.0000 </r>
       <r>   -5.6584    1.0000 </r>
       <r>   -5.5026    1.0000 </r>
       <r>   -5.3889    1.0000 </r>
       <r>   -5.2529    1.0000 </r>
       <r>   -5.2408    1.0000 </r>
       <r>   -5.1791    1.0000 </r>
       <r>   -5.1128    1.0000 </r>
       <r>   -4.8023    1.0000 </r>
       <r>   -4.3830    1.0000 </r>
       <r>   -2.8584    0.0000 </r>
       <r>   -2.8405    0.0000 </r>
       <r>   -2.6207    0.0000 </r>
       <r>   -2.5968    0.0000 </r>
       <r>   -2.2019    0.0000 </r>
       <r>   -2.1625    0.0000 </r>
       <r>   -1.3793    0.0000 </r>
       <r>   -1.3127    0.0000 </r>
       <r>   -1.3075    0.0000 </r>
       <r>   -1.1805    0.0000 </r>
       <r>   -1.1805    0.0000 </r>
       <r>   -1.0245    0.0000 </r>
       <r>   -1.0201    0.0000 </r>
       <r>   -0.9979    0.0000 </r>
       <r>   -0.9920    0.0000 </r>
       <r>   -0.9486    0.0000 </r>
       <r>   -0.9417    0.0000 </r>
       <r>   -0.6244    0.0000 </r>
       <r>   -0.5360    0.0000 </r>
       <r>   -0.3035    0.0000 </r>
       <r>   -0.2654    0.0000 </r>
       <r>   -0.1404    0.0000 </r>
       <r>   -0.1339    0.0000 </r>
       <r>   -0.0963    0.0000 </r>
       <r>   -0.0831    0.0000 </r>
       <r>   -0.0664    0.0000 </r>
       <r>    0.0326    0.0000 </r>
       <r>    0.0371    0.0000 </r>
       <r>    0.1411    0.0000 </r>
       <r>    0.1924    0.0000 </r>
       <r>    0.2617    0.0000 </r>
       <r>    0.2811    0.0000 </r>
       <r>    0.2986    0.0000 </r>
       <r>    0.3357    0.0000 </r>
       <r>    0.3405    0.0000 </r>
       <r>    0.3519    0.0000 </r>
       <r>    0.3648    0.0000 </r>
       <r>    0.4079    0.0000 </r>
       <r>    0.4302    0.0000 </r>
       <r>    0.4443    0.0000 </r>
       <r>    0.4579    0.0000 </r>
       <r>    0.4713    0.0000 </r>
       <r>    0.5665    0.0000 </r>
       <r>    0.5875    0.0000 </r>
       <r>    0.6048    0.0000 </r>
       <r>    0.6295    0.0000 </r>
       <r>    0.6367    0.0000 </r>
       <r>    0.6794    0.0000 </r>
       <r>    0.6889    0.0000 </r>
       <r>    0.7060    0.0000 </r>
       <r>    0.7201    0.0000 </r>
       <r>    0.7419    0.0000 </r>
       <r>    0.7464    0.0000 </r>
       <r>    0.7699    0.0000 </r>
       <r>    0.7765    0.0000 </r>
       <r>    0.7817    0.0000 </r>
       <r>    0.7978    0.0000 </r>
       <r>    0.8040    0.0000 </r>
       <r>    0.8135    0.0000 </r>
       <r>    0.8186    0.0000 </r>
       <r>    0.8336    0.0000 </r>
       <r>    0.8367    0.0000 </r>
       <r>    0.8567    0.0000 </r>
       <r>    0.8786    0.0000 </r>
       <r>    0.8838    0.0000 </r>
       <r>    0.8880    0.0000 </r>
       <r>    0.9314    0.0000 </r>
       <r>    0.9779    0.0000 </r>
       <r>    0.9852    0.0000 </r>
      </set>
      <set comment="kpoint 2">
       <r>  -24.3107    1.0000 </r>
       <r>  -24.2755    1.0000 </r>
       <r>  -23.1731    1.0000 </r>
       <r>  -23.1719    1.0000 </r>
       <r>  -23.1647    1.0000 </r>
       <r>  -23.1628    1.0000 </r>
       <r>  -23.0555    1.0000 </r>
       <r>  -22.9886    1.0000 </r>
       <r>  -21.6570    1.0000 </r>
       <r>  -21.6555    1.0000 </r>
       <r>  -21.2272    1.0000 </r>
       <r>  -21.2230    1.0000 </r>
       <r>  -21.1508    1.0000 </r>
       <r>  -20.9925    1.0000 </r>
       <r>  -20.9369    1.0000 </r>
       <r>  -20.9301    1.0000 </r>
       <r>  -20.0971    1.0000 </r>
       <r>  -19.7005    1.0000 </r>
       <r>  -19.6866    1.0000 </r>
       <r>  -19.5848    1.0000 </r>
       <r>  -19.4968    1.0000 </r>
       <r>  -19.2599    1.0000 </r>
       <r>  -19.1770    1.0000 </r>
       <r>  -18.8619    1.0000 </r>
       <r>  -18.6081    1.0000 </r>
       <r>  -18.5781    1.0000 </r>
       <r>  -18.5721    1.0000 </r>
       <r>  -18.4814    1.0000 </r>
       <r>  -18.3733    1.0000 </r>
       <r>  -18.3656    1.0000 </r>
       <r>  -18.2806    1.0000 </r>
       <r>  -18.2650    1.0000 </r>
       <r>  -18.2383    1.0000 </r>
       <r>  -18.2291    1.0000 </r>
       <r>  -18.2002    1.0000 </r>
       <r>  -18.1706    1.0000 </r>
       <r>  -17.9853    1.0000 </r>
       <r>  -17.5708    1.0000 </r>
       <r>  -17.4656    1.0000 </r>
       <r>  -17.4040    1.0000 </r>
       <r>  -17.3758    1.0000 </r>
       <r>  -16.4125    1.0000 </r>
       <r>  -16.1795    1.0000 </r>
       <r>  -16.1516    1.0000 </r>
       <r>  -16.0029    1.0000 </r>
       <r>  -15.4294    1.0000 </r>
       <r>  -15.4205    1.0000 </r>
       <r>  -15.3031    1.0000 </r>
       <r>  -15.2926    1.0000 </r>
       <r>  -15.0756    1.0000 </r>
       <r>  -14.8856    1.0000 </r>
       <r>  -14.8085    1.0000 </r>
       <r>  -14.7970    1.0000 </r>
       <r>  -14.7370    1.0000 </r>
       <r>  -14.7097    1.0000 </r>
       <r>  -14.5877    1.0000 </r>
       <r>  -14.4920    1.0000 </r>
       <r>  -14.3776    1.0000 </r>
       <r>  -14.3012    1.0000 </r>
       <r>  -14.2630    1.0000 </r>
       <r>  -14.2296    1.0000 </r>
       <r>  -14.1889    1.0000 </r>
       <r>  -13.8088    1.0000 </r>
       <r>  -13.7958    1.0000 </r>
       <r>  -13.7775    1.0000 </r>
       <r>  -13.6036    1.0000 </r>
       <r>  -13.5772    1.0000 </r>
       <r>  -13.5211    1.0000 </r>
       <r>  -13.3840    1.0000 </r>
       <r>  -13.1329    1.0000 </r>
       <r>  -12.9912    1.0000 </r>
       <r>  -12.8417    1.0000 </r>
[...]
       <r>   -19.0753     0.0000    46.0000 </r>
       <r>   -18.9824     5.6045    46.5206 </r>
       <r>   -18.8895    10.1004    47.5739 </r>
       <r>   -18.7966     3.2244    48.0000 </r>
       <r>   -18.7037     0.0000    48.0000 </r>
       <r>   -18.6109     2.5693    48.2387 </r>
       <r>   -18.5180    52.7253    54.0000 </r>
       <r>   -18.4251    12.6421    55.1743 </r>
       <r>   -18.3322    50.8423    60.0231 </r>
       <r>   -18.2393    54.3607    65.2167 </r>
       <r>   -18.1464    51.2428    71.9997 </r>
       <r>   -18.0535     0.0000    72.0000 </r>
       <r>   -17.9606     4.7167    72.4381 </r>
       <r>   -17.8678     5.5441    73.0491 </r>
       <r>   -17.7749    17.9943    74.8065 </r>
       <r>   -17.6820     3.5167    75.2602 </r>
       <r>   -17.5891    11.5341    76.4047 </r>
       <r>   -17.4962    11.4442    77.6660 </r>
       <r>   -17.4033     7.1331    78.4628 </r>
       <r>   -17.3104    13.6761    80.3721 </r>
       <r>   -17.2176     3.3777    80.7471 </r>
       <r>   -17.1247     6.6295    81.4493 </r>
       <r>   -17.0318     5.0231    82.0000 </r>
       <r>   -16.9389     0.0000    82.0000 </r>
       <r>   -16.8460     0.0000    82.0000 </r>
       <r>   -16.7531     0.0000    82.0000 </r>
       <r>   -16.6602     0.0000    82.0000 </r>
       <r>   -16.5673     0.0900    82.0084 </r>
       <r>   -16.4745    12.5446    83.3006 </r>
       <r>   -16.3816    12.3158    84.5445 </r>
       <r>   -16.2887     6.0889    85.1663 </r>
       <r>   -16.1958     4.3997    85.7756 </r>
       <r>   -16.1029     6.7935    86.4648 </r>
       <r>   -16.0100     6.9968    87.2863 </r>
       <r>   -15.9171     6.8603    88.1045 </r>
       <r>   -15.8242     7.4802    88.8952 </r>
       <r>   -15.7314    11.1182    90.0010 </r>
       <r>   -15.6385     4.6545    90.4333 </r>
       <r>   -15.5456     6.8448    91.1364 </r>
       <r>   -15.4527     6.7786    91.7976 </r>
       <r>   -15.3598    23.2122    94.4927 </r>
       <r>   -15.2669    29.3986    98.0000 </r>
       <r>   -15.1740     0.0000    98.0000 </r>
       <r>   -15.0812     0.3918    98.0364 </r>
       <r>   -14.9883     6.3276    98.8213 </r>
       <r>   -14.8954    26.3207   101.5473 </r>
       <r>   -14.8025     9.4423   102.8771 </r>
       <r>   -14.7096    41.5425   108.2617 </r>
       <r>   -14.6167     4.9221   110.0000 </r>
       <r>   -14.5238    22.6510   112.1040 </r>
       <r>   -14.4309    12.4694   114.2279 </r>
       <r>   -14.3381    26.6231   116.8075 </r>
       <r>   -14.2452    35.6615   120.2134 </r>
       <r>   -14.1523    36.1423   123.9626 </r>
       <r>   -14.0594     0.0000   124.0000 </r>
       <r>   -13.9665     0.0000   124.0000 </r>
       <r>   -13.8736     0.0463   124.0043 </r>
       <r>   -13.7807    43.6369   128.0576 </r>
       <r>   -13.6878    16.5373   129.8042 </r>
       <r>   -13.5950    20.7017   131.9229 </r>
       <r>   -13.5021    42.9992   135.9987 </r>
       <r>   -13.4092     0.0014   136.0001 </r>
       <r>   -13.3163    21.5301   138.0000 </r>
       <r>   -13.2234     0.0000   138.0000 </r>
       <r>   -13.1305    12.3217   139.1445 </r>
       <r>   -13.0376     0.0000   140.0000 </r>
       <r>   -12.9448    21.5315   142.0000 </r>
       <r>   -12.8519     0.4909   142.0456 </r>
       <r>   -12.7590    37.8661   146.0000 </r>
       <r>   -12.6661    22.3705   148.0779 </r>
       <r>   -12.5732    16.9678   149.7886 </r>
       <r>   -12.4803    22.2317   151.9657 </r>
       <r>   -12.3874     7.6069   153.0740 </r>
       <r>   -12.2945    10.9589   154.3862 </r>
       <r>   -12.2017    11.8257   156.0000 </r>
       <r>   -12.1088     0.0000   156.0000 </r>
       <r>   -12.0159    12.7315   157.1826 </r>
       <r>   -11.9230    36.2169   161.0688 </r>
       <r>   -11.8301    43.0486   165.9987 </r>
       <r>   -11.7372     0.0000   166.0000 </r>
       <r>   -11.6443     0.0000   166.0000 </r>
       <r>   -11.5514    13.4040   167.2451 </r>
       <r>   -11.4586    42.9298   171.6262 </r>
       <r>   -11.3657     0.0000   172.0000 </r>
       <r>   -11.2728     0.0002   172.0000 </r>
       <r>   -11.1799    21.2563   173.9745 </r>
       <r>   -11.0870    16.1920   175.5040 </r>
       <r>   -10.9941    44.5689   180.1423 </r>
       <r>   -10.9012    10.2898   182.0268 </r>
       <r>   -10.8083    38.9386   185.9912 </r>
       <r>   -10.7155    21.4758   187.9948 </r>
       <r>   -10.6226    37.2331   191.4604 </r>
       <r>   -10.5297     4.4234   194.4109 </r>
       <r>   -10.4368    59.8544   202.0000 </r>
       <r>   -10.3439    20.5022   203.9044 </r>
       <r>   -10.2510    79.8874   211.4205 </r>
       <r>   -10.1581    40.2532   217.7513 </r>
       <r>   -10.0653    42.9972   222.0002 </r>
       <r>    -9.9724    63.7558   227.9226 </r>
       <r>    -9.8795    84.0198   235.8043 </r>
       <r>    -9.7866    21.5279   237.9997 </r>
       <r>    -9.6937     0.0000   238.0000 </r>
       <r>    -9.6008    40.1498   241.7294 </r>
       <r>    -9.5079    44.7346   247.2937 </r>
       <r>    -9.4150    44.7508   251.8609 </r>
       <r>    -9.3222    21.5310   254.0000 </r>
       <r>    -9.2293     0.0000   254.0000 </r>
       <r>    -9.1364    55.3389   259.1403 </r>
       <r>    -9.0435    38.1469   263.9452 </r>
       <r>    -8.9506     0.0000   264.0000 </r>
       <r>    -8.8577    16.6882   265.5501 </r>
       <r>    -8.7648    18.7574   267.8810 </r>
       <r>    -8.6719    13.0101   269.2085 </r>
       <r>    -8.5791    46.5561   274.3252 </r>
       <r>    -8.4862    19.0517   276.2371 </r>
       <r>    -8.3933    35.1080   280.0001 </r>
       <r>    -8.3004    68.5812   286.3707 </r>
       <r>    -8.2075    32.7754   291.5131 </r>
       <r>    -8.1146    27.3497   294.4749 </r>
       <r>    -8.0217    57.3629   300.0971 </r>
       <r>    -7.9289    33.6796   304.0000 </r>
       <r>    -7.8360    50.7897   308.7177 </r>
       <r>    -7.7431    32.3764   311.8776 </r>
       <r>    -7.6502     0.0000   312.0000 </r>
       <r>    -7.5573     0.0000   312.0000 </r>
       <r>    -7.4644     0.2198   312.0204 </r>
       <r>    -7.3715    18.6225   314.0000 </r>
       <r>    -7.2786     0.0000   314.0000 </r>
       <r>    -7.1858     0.0000   314.0000 </r>
       <r>    -7.0929     0.0000   314.0000 </r>
       <r>    -7.0000     4.7562   314.4418 </r>
       <r>    -6.9071    27.5097   317.9915 </r>
       <r>    -6.8142     0.0000   318.0000 </r>
       <r>    -6.7213    12.9065   319.1988 </r>
       <r>    -6.6284    14.7269   320.6693 </r>
       <r>    -6.5355    10.8028   321.7705 </r>
       <r>    -6.4427    27.2685   324.4711 </r>
       <r>    -6.3498    99.3626   333.8636 </r>
       <r>    -6.2569     0.0000   334.0000 </r>
       <r>    -6.1640    45.1773   338.1964 </r>
       <r>    -6.0711    56.2095   345.2212 </r>
       <r>    -5.9782    42.8911   350.0000 </r>
       <r>    -5.8853     0.0393   350.0037 </r>
       <r>    -5.7925    43.0238   354.0000 </r>
       <r>    -5.6996     0.0000   354.0000 </r>
       <r>    -5.6067    43.0631   358.0000 </r>
       <r>    -5.5138    10.3278   358.9593 </r>
       <r>    -5.4209     0.0000   360.0000 </r>
       <r>    -5.3280    21.5432   362.0011 </r>
       <r>    -5.2351    42.3111   365.9312 </r>
       <r>    -5.1422     9.3312   366.8667 </r>
       <r>    -5.0494    30.4900   370.0000 </r>
       <r>    -4.9565     0.0000   370.0000 </r>
       <r>    -4.8636     0.0000   370.0000 </r>
       <r>    -4.7707    21.5315   372.0000 </r>
       <r>    -4.6778     0.0000   372.0000 </r>
       <r>    -4.5849     0.0000   372.0000 </r>
       <r>    -4.4920     0.0000   372.0000 </r>
       <r>    -4.3991     7.3515   372.6829 </r>
       <r>    -4.3063     4.2351   374.0000 </r>
       <r>    -4.2134     0.0000   374.0000 </r>
       <r>    -4.1205     0.0000   374.0000 </r>
       <r>    -4.0276     0.0000   374.0000 </r>
       <r>    -3.9347     0.0000   374.0000 </r>
       <r>    -3.8418     0.0000   374.0000 </r>
       <r>    -3.7489     0.0000   374.0000 </r>
       <r>    -3.6561     0.0000   374.0000 </r>
       <r>    -3.5632     0.0000   374.0000 </r>
       <r>    -3.4703     0.0000   374.0000 </r>
       <r>    -3.3774     0.0000   374.0000 </r>
       <r>    -3.2845     0.0000   374.0000 </r>
       <r>    -3.1916     0.0000   374.0000 </r>
       <r>    -3.0987     0.0000   374.0000 </r>
       <r>    -3.0058     0.0000   374.0000 </r>
       <r>    -2.9130     0.0000   374.0000 </r>
       <r>    -2.8201    22.8411   376.1216 </r>
       <r>    -2.7272    16.1140   378.0000 </r>
       <r>    -2.6343    24.5142   380.2771 </r>
       <r>    -2.5414    13.2260   382.0000 </r>
       <r>    -2.4485     0.0000   382.0000 </r>
       <r>    -2.3556     0.0000   382.0000 </r>
       <r>    -2.2627     0.0000   382.0000 </r>
       <r>    -2.1699    16.0595   383.4917 </r>
       <r>    -2.0770    11.7261   386.0000 </r>
       <r>    -1.9841     0.0000   386.0000 </r>
       <r>    -1.8912     0.0000   386.0000 </r>
       <r>    -1.7983     0.0000   386.0000 </r>
       <r>    -1.7054     0.0000   386.0000 </r>
       <r>    -1.6125     0.0000   386.0000 </r>
       <r>    -1.5196     0.0000   386.0000 </r>
       <r>    -1.4268     0.0000   386.0000 </r>
       <r>    -1.3339    21.5872   388.0052 </r>
       <r>    -1.2410    43.0074   392.0000 </r>
       <r>    -1.1481    43.0630   396.0000 </r>
       <r>    -1.0552     0.0001   396.0000 </r>
       <r>    -0.9623    92.7283   404.6133 </r>
       <r>    -0.8694    25.3681   408.0000 </r>
       <r>    -0.7766     0.0000   408.0000 </r>
       <r>    -0.6837     0.0000   408.0000 </r>
       <r>    -0.5908    11.5823   409.0758 </r>
       <r>    -0.4979    17.7915   412.0000 </r>
       <r>    -0.4050     0.0000   412.0000 </r>
       <r>    -0.3121     0.5311   412.0493 </r>
       <r>    -0.2192    37.3440   416.0073 </r>
       <r>    -0.1263    31.3912   418.9232 </r>
       <r>    -0.0335    62.4693   425.1414 </r>
       <r>     0.0594    38.1416   429.3159 </r>
       <r>     0.1523    21.4629   431.9936 </r>
       <r>     0.2452    37.6231   435.6645 </r>
       <r>     0.3381    66.3783   442.8834 </r>
       <r>     0.4310    66.5769   450.3624 </r>
       <r>     0.5239    52.6306   456.5715 </r>
       <r>     0.6168    91.2097   465.5767 </r>
       <r>     0.7096    96.5615   475.9772 </r>
       <r>     0.8025   110.6746   487.7862 </r>
       <r>     0.8954   105.2975   499.4297 </r>
       <r>     0.9883    90.9942   509.5306 </r>
       <r>     1.0812     8.1915   512.0000 </r>
       <r>     1.1741     0.0000   512.0000 </r>
       <r>     1.2670     0.0000   512.0000 </r>
       <r>     1.3598     0.0000   512.0000 </r>
       <r>     1.4527     0.0000   512.0000 </r>
       <r>     1.5456     0.0000   512.0000 </r>
       <r>     1.6385     0.0000   512.0000 </r>
       <r>     1.7314     0.0000   512.0000 </r>
       <r>     1.8243     0.0000   512.0000 </r>
       <r>     1.9172     0.0000   512.0000 </r>
       <r>     2.0101     0.0000   512.0000 </r>
       <r>     2.1029     0.0000   512.0000 </r>
       <r>     2.1958     0.0000   512.0000 </r>
       <r>     2.2887     0.0000   512.0000 </r>
      </set>
     </set>
    </array>
   </total>
  </dos>
 </calculation>
 <structure name="finalpos" >
  <crystal>
   <varray name="basis" >
    <v>      29.93518946       0.04618947       0.00000000 </v>
    <v>       0.03256915      29.94276047       0.00000000 </v>
    <v>       0.00000000       0.00000000      20.00000000 </v>
   </varray>
   <i name="volume">  17926.81406218 </i>
   <varray name="rec_basis" >
    <v>       0.03340556      -0.00003634       0.00000000 </v>
    <v>      -0.00005153       0.03339711       0.00000000 </v>
    <v>       0.00000000       0.00000000       0.05000000 </v>
   </varray>
  </crystal>
  <varray name="positions" >
   <v>       0.02259739       0.74544434       0.36820317 </v>
   <v>       0.02476540       0.82857406       0.37624146 </v>
   <v>       0.90867684       0.84275452       0.48099201 </v>
   <v>       0.84447967       0.90567586       0.48672084 </v>
   <v>       0.97071623       0.97020863       0.48272538 </v>
   <v>       0.02138536       0.02246692       0.48107272 </v>
   <v>       0.08729617       0.84445635       0.47753878 </v>
   <v>       0.14993582       0.90858969       0.47487509 </v>
   <v>       0.16363726       0.02435511       0.37515268 </v>
   <v>       0.24684945       0.02247795       0.36744346 </v>
   <v>       0.14761317       0.08701034       0.48087188 </v>
   <v>       0.08321417       0.14999203       0.48429919 </v>
   <v>       0.84206554       0.08397633       0.48866646 </v>
   <v>       0.90469175       0.14821839       0.48986647 </v>
   <v>       0.96609144       0.17233444       0.39154416 </v>
   <v>       0.96381505       0.25492475       0.40094841 </v>
   <v>       0.81997816       0.96871583       0.39207673 </v>
   <v>       0.73740870       0.96666756       0.40186796 </v>
   <v>       0.02239725       0.47182591       0.37991930 </v>
   <v>       0.02259550       0.38953161       0.36884689 </v>
   <v>       0.98041626       0.61651648       0.39894646 </v>
   <v>       0.97700885       0.53388408       0.38789667 </v>
   <v>       0.01275182       0.31640963       0.41338279 </v>
   <v>       0.52056618       0.02436924       0.38067746 </v>
   <v>       0.60290891       0.02497813       0.37009507 </v>
   <v>       0.37640618       0.98078100       0.39844029 </v>
   <v>       0.45912889       0.97839027       0.38803753 </v>
   <v>       0.67595946       0.01515228       0.41484934 </v>
   <v>       0.96990137       0.73861608       0.56827189 </v>
   <v>       0.97147036       0.82122521       0.57571014 </v>
   <v>       0.17097554       0.96946950       0.57364148 </v>
   <v>       0.25371854       0.96831285       0.56661167 </v>
   <v>       0.01928924       0.16311496       0.59088420 </v>
   <v>       0.01621577       0.24613344       0.60103188 </v>
   <v>       0.74656214       0.01784640       0.60260170 </v>
   <v>       0.82955723       0.02049859       0.59220537 </v>
   <v>       0.02138765       0.52009446       0.59211169 </v>
   <v>       0.02385273       0.60237292       0.60298472 </v>
   <v>       0.97528953       0.37670094       0.57110980 </v>
   <v>       0.97426404       0.45939120       0.58238123 </v>
   <v>       0.01626874       0.67593138       0.55784440 </v>
   <v>       0.47143472       0.02267267       0.59247607 </v>
   <v>       0.38909051       0.02417561       0.60268862 </v>
   <v>       0.61568127       0.97792131       0.57253073 </v>
   <v>       0.53296715       0.97637168       0.58325709 </v>
   <v>       0.31584126       0.01591397       0.55707548 </v>
   <v>       0.91308833       0.87866854       0.48240865 </v>
   <v>       0.88030351       0.91079292       0.48495780 </v>
   <v>       0.90151362       0.95370554       0.48468165 </v>
   <v>       0.95556773       0.90076171       0.48194441 </v>
   <v>       0.99796521       0.88045152       0.47986229 </v>
   <v>       0.03920339       0.90328024       0.47915984 </v>
   <v>       0.09002185       0.95531115       0.47887863 </v>
   <v>       0.11393563       0.91281463       0.47683474 </v>
   <v>       0.08225244       0.88037220       0.47776690 </v>
   <v>       0.11180921       0.99710450       0.47832753 </v>
   <v>       0.09054026       0.03902701       0.47961092 </v>
   <v>       0.03646679       0.09191840       0.48362523 </v>
   <v>       0.07891593       0.11405023       0.48316269 </v>
   <v>       0.11175480       0.08193058       0.48113536 </v>
   <v>       0.99407915       0.11224434       0.48555882 </v>
   <v>       0.95281774       0.08946957       0.48512277 </v>
   <v>       0.90206651       0.03739371       0.48594466 </v>
   <v>       0.87809756       0.07985712       0.48763874 </v>
   <v>       0.90975386       0.11233143       0.48787560 </v>
   <v>       0.88025781       0.99562229       0.48646640 </v>
   <v>       0.83054445       0.99524852       0.49113630 </v>
   <v>       0.73627194       0.99358195       0.50245984 </v>
   <v>       0.75747686       0.97934595       0.44324411 </v>
   <v>       0.80389837       0.98008243       0.43803897 </v>
   <v>       0.99339350       0.16196099       0.49017294 </v>
   <v>       0.99137149       0.25622448       0.50115776 </v>
   <v>       0.97687105       0.23492714       0.44221157 </v>
   <v>       0.97778415       0.18851015       0.43717654 </v>
   <v>       0.16155358       0.99751038       0.47525681 </v>
   <v>       0.18351641       0.01266254       0.41743886 </v>
   <v>       0.22984711       0.01169954       0.41286695 </v>
   <v>       0.25593259       0.99680547       0.46704385 </v>
   <v>       0.99861714       0.83071678       0.47676129 </v>
   <v>       0.01325346       0.80872496       0.41858978 </v>
   <v>       0.99751763       0.73631587       0.46812867 </v>
   <v>       0.01213976       0.76241634       0.41387199 </v>
   <v>       0.98934449       0.59494391       0.44081396 </v>
   <v>       0.98788565       0.54883606       0.43489207 </v>
   <v>       0.99846939       0.47178104       0.48204324 </v>
   <v>       0.01137598       0.45123307       0.42175315 </v>
   <v>       0.01179896       0.40494577       0.41567732 </v>
   <v>       0.99910127       0.37758065       0.46947384 </v>
   <v>       0.00089001       0.32907422       0.46231839 </v>
   <v>       0.39766214       0.98993769       0.44051284 </v>
   <v>       0.44382703       0.98904404       0.43494389 </v>
   <v>       0.52056963       0.00042744       0.48278854 </v>
   <v>       0.54116633       0.01348342       0.42264616 </v>
   <v>       0.58747447       0.01413238       0.41684796 </v>
   <v>       0.61483079       0.00153911       0.47081051 </v>
   <v>       0.66334818       0.00331131       0.46377233 </v>
   <v>       0.80922824       0.00913321       0.55027107 </v>
   <v>       0.76298422       0.00773134       0.55632242 </v>
   <v>       0.00761831       0.18336658       0.54898541 </v>
   <v>       0.00597987       0.22961560       0.55492592 </v>
   <v>       0.23408594       0.98157302       0.52510876 </v>
   <v>       0.18761115       0.98184174       0.52878665 </v>
   <v>       0.98332843       0.80464271       0.53044557 </v>
   <v>       0.98286149       0.75818608       0.52656787 </v>
   <v>       0.00242786       0.61496362       0.50144916 </v>
   <v>       0.99917728       0.52081643       0.48912055 </v>
   <v>       0.01171310       0.54099889       0.54982557 </v>
   <v>       0.01341324       0.58726384       0.55579727 </v>
   <v>       0.98556464       0.39797986       0.52965633 </v>
   <v>       0.98541150       0.44411692       0.53571628 </v>
   <v>       0.00524150       0.66342537       0.50843079 </v>
   <v>       0.37718455       0.00273590       0.50100669 </v>
   <v>       0.47147877       0.00062431       0.48940839 </v>
   <v>       0.45085235       0.01282570       0.54997670 </v>
   <v>       0.40452950       0.01396820       0.55558609 </v>
   <v>       0.59439792       0.98801933       0.53091585 </v>
   <v>       0.54823494       0.98761019       0.53667992 </v>
   <v>       0.32863910       0.00506068       0.50770220 </v>
   <v>       0.94685416       0.94592611       0.48309965 </v>
   <v>       0.04472128       0.94872056       0.48018543 </v>
   <v>       0.04521149       0.04678827       0.48110780 </v>
   <v>       0.94733914       0.04401954       0.48385109 </v>
   <v>       0.99052341       0.30250097       0.51036732 </v>
   <v>       0.30225289       0.99609860       0.45878565 </v>
   <v>       0.99643191       0.69002258       0.45963811 </v>
   <v>       0.68999601       0.99288273       0.51179520 </v>
  </varray>
 </structure>
</modeling>
