<?xml version="1.0" encoding="ISO-8859-1"?>
<modeling>
 <generator>
  <i name="program" type="string">vasp </i>
  <i name="version" type="string">5.4.4.18Apr17-6-g9f103f2a35  </i>
  <i name="subversion" type="string">(build Jun 07 2020 16:50:00) complex            parallel </i>
  <i name="platform" type="string">LinuxIFC </i>
  <i name="date" type="string">2023 02 21 </i>
  <i name="time" type="string">00:16:16 </i>
 </generator>
 <incar>
  <i type="string" name="SYSTEM">Simulation for cell shape cell volume r</i>
  <i type="int" name="ISTART">     1</i>
  <i type="string" name="PREC">high</i>
  <i type="string" name="ALGO">48</i>
  <i type="int" name="ICHARG">    11</i>
  <i type="int" name="NELM">   200</i>
  <i type="int" name="IBRION">    -1</i>
  <i name="EDIFF">      0.00001000</i>
  <i name="EDIFFG">     -0.01000000</i>
  <i type="int" name="NSW">     0</i>
  <i type="int" name="ISIF">     2</i>
  <i name="ENCUT">    500.00000000</i>
  <i name="POTIM">      0.30000000</i>
  <i type="string" name="LREAL">A</i>
  <i type="int" name="ISMEAR">     0</i>
  <i name="SIGMA">      0.01000000</i>
  <i type="int" name="NWRITE">     0</i>
  <i type="logical" name="LWAVE"> F  </i>
  <i type="logical" name="LCHARG"> F  </i>
  <v type="int" name="KPOINT_BSE">    -1     0     0     0</v>
  <i type="int" name="NELM">   200</i>
  <i type="string" name="GGA">PE</i>
 </incar>
 <structure name="primitive_cell" >
  <crystal>
   <varray name="basis" >
    <v>      30.04526519       0.00000000       0.00000000 </v>
    <v>     -15.02263259      26.01996292       0.00000000 </v>
    <v>       0.00000000       0.00000000      20.00000000 </v>
   </varray>
   <i name="volume">  15635.53372071 </i>
   <varray name="rec_basis" >
    <v>       0.03328311       0.01921602       0.00000000 </v>
    <v>       0.00000000       0.03843203       0.00000000 </v>
    <v>       0.00000000       0.00000000       0.05000000 </v>
   </varray>
  </crystal>
  <varray name="positions" >
   <v>       0.03027239      -0.48486381      -0.33850526 </v>
   <v>       0.05421067      -0.47289467      -0.37587595 </v>
   <v>       0.02664659      -0.48667671      -0.43474552 </v>
   <v>      -0.04858426       0.47570787      -0.38899344 </v>
   <v>      -0.02707978       0.48646011      -0.43597412 </v>
   <v>       0.05450424      -0.47274788      -0.49494699 </v>
   <v>       0.11169763      -0.44415118      -0.49502109 </v>
   <v>      -0.05454962       0.47272519      -0.49615173 </v>
   <v>       0.02702545      -0.48648728       0.44487372 </v>
   <v>       0.13947690      -0.39032538      -0.49519448 </v>
   <v>       0.13947690      -0.47019771      -0.49519448 </v>
   <v>       0.11875906      -0.36910163      -0.49478597 </v>
   <v>       0.11875906       0.48786069      -0.49478597 </v>
   <v>      -0.02670944       0.48664528       0.44362746 </v>
   <v>      -0.11172801       0.44413599      -0.49601307 </v>
   <v>       0.04853573      -0.47573214       0.39790168 </v>
   <v>       0.19300882      -0.36362899      -0.49561725 </v>
   <v>       0.19300882      -0.44336219      -0.49561725 </v>
   <v>      -0.11876489       0.36910154      -0.49612591 </v>
   <v>      -0.11876489      -0.48786643      -0.49612591 </v>
   <v>      -0.13949469       0.39031342      -0.49578883 </v>
   <v>      -0.13949469       0.47019190      -0.49578883 </v>
   <v>       0.22148445      -0.38925778      -0.49573911 </v>
   <v>      -0.05428986       0.47285507       0.38473900 </v>
   <v>       0.21252866      -0.32179709      -0.49572707 </v>
   <v>       0.21252866      -0.46567425      -0.49572707 </v>
   <v>      -0.03033041       0.48483480       0.34739131 </v>
   <v>      -0.19302358       0.36361930      -0.49536768 </v>
   <v>      -0.19302358       0.44335712      -0.49536768 </v>
   <v>       0.27877702      -0.36061149      -0.49583141 </v>
   <v>      -0.22149373       0.38925313      -0.49527247 </v>
   <v>      -0.21254523       0.32178948      -0.49523675 </v>
   <v>      -0.21254523       0.46566529      -0.49523675 </v>
   <v>       0.28580792      -0.42838416      -0.49569528 </v>
   <v>       0.28580792      -0.28580792      -0.49569528 </v>
   <v>       0.30668129      -0.30668129      -0.49581595 </v>
   <v>       0.30668129      -0.38663742      -0.49581595 </v>
   <v>      -0.27878011       0.36060994      -0.49519690 </v>
   <v>       0.32179709      -0.21252866      -0.49572707 </v>
   <v>       0.32179709      -0.46567425      -0.49572707 </v>
   <v>      -0.28580947       0.42838105      -0.49530532 </v>
   <v>      -0.28580947       0.28580947      -0.49530532 </v>
   <v>       0.36061149      -0.36061149      -0.49583141 </v>
   <v>       0.36061149      -0.27877702      -0.49583141 </v>
   <v>      -0.30668189       0.30668189      -0.49520784 </v>
   <v>      -0.30668189       0.38663623      -0.49520784 </v>
   <v>       0.38663742      -0.30668129      -0.49581595 </v>
   <v>       0.36362899      -0.19300882      -0.49561725 </v>
   <v>       0.36362899      -0.44336219      -0.49561725 </v>
   <v>       0.38925778      -0.22148445      -0.49573911 </v>
   <v>       0.38925778      -0.38925778      -0.49573911 </v>
   <v>      -0.32178948       0.46566529      -0.49523675 </v>
   <v>      -0.32178948       0.21254523      -0.49523675 </v>
   <v>      -0.36060994       0.27878011      -0.49519690 </v>
   <v>      -0.36060994       0.36060994      -0.49519690 </v>
   <v>       0.42838416      -0.28580792      -0.49569528 </v>
   <v>       0.39032538      -0.13947690      -0.49519448 </v>
   <v>       0.39032538      -0.47019771      -0.49519448 </v>
   <v>       0.36910163      -0.11875906      -0.49478597 </v>
   <v>       0.36910163       0.48786069      -0.49478597 </v>
   <v>      -0.38663623       0.30668189      -0.49520784 </v>
   <v>      -0.36361930       0.19302358      -0.49536768 </v>
   <v>      -0.36361930       0.44335712      -0.49536768 </v>
   <v>       0.44336219      -0.19300882      -0.49561725 </v>
   <v>       0.44336219      -0.36362899      -0.49561725 </v>
   <v>      -0.38925313       0.22149373      -0.49527247 </v>
   <v>      -0.38925313       0.38925313      -0.49527247 </v>
   <v>       0.46567425      -0.21252866      -0.49572707 </v>
   <v>       0.46567425      -0.32179709      -0.49572707 </v>
   <v>       0.44415118      -0.44415118      -0.49502109 </v>
   <v>       0.44415118      -0.11169763      -0.49502109 </v>
   <v>      -0.42838105       0.28580947      -0.49530532 </v>
   <v>      -0.36910154       0.11876489      -0.49612591 </v>
   <v>      -0.36910154      -0.48786643      -0.49612591 </v>
   <v>      -0.39031342       0.13949469      -0.49578883 </v>
   <v>      -0.39031342       0.47019190      -0.49578883 </v>
   <v>       0.47019771      -0.13947690      -0.49519448 </v>
   <v>       0.47019771      -0.39032538      -0.49519448 </v>
   <v>      -0.44335712       0.19302358      -0.49536768 </v>
   <v>      -0.44335712       0.36361930      -0.49536768 </v>
   <v>       0.47289467      -0.47289467      -0.37587595 </v>
   <v>       0.47289467      -0.05421067      -0.37587595 </v>
   <v>      -0.46566529       0.21254523      -0.49523675 </v>
   <v>      -0.46566529       0.32178948      -0.49523675 </v>
   <v>      -0.48786069      -0.11875906      -0.49478597 </v>
   <v>      -0.48786069      -0.36910163      -0.49478597 </v>
   <v>       0.47274788      -0.47274788      -0.49494699 </v>
   <v>       0.47274788      -0.05450424      -0.49494699 </v>
   <v>       0.48486381      -0.03027239      -0.33850526 </v>
   <v>       0.48486381      -0.48486381      -0.33850526 </v>
   <v>      -0.44413599       0.11172801      -0.49601307 </v>
   <v>      -0.44413599       0.44413599      -0.49601307 </v>
   <v>       0.48667671      -0.02664659      -0.43474552 </v>
   <v>       0.48667671      -0.48667671      -0.43474552 </v>
   <v>      -0.47019190       0.13949469      -0.49578883 </v>
   <v>      -0.47019190       0.39031342      -0.49578883 </v>
   <v>       0.47573214      -0.04853573       0.39790168 </v>
   <v>       0.47573214      -0.47573214       0.39790168 </v>
   <v>       0.48648728      -0.02702545       0.44487372 </v>
   <v>       0.48648728      -0.48648728       0.44487372 </v>
   <v>      -0.47570787       0.04858426      -0.38899344 </v>
   <v>      -0.47570787       0.47570787      -0.38899344 </v>
   <v>      -0.47272519       0.05454962      -0.49615173 </v>
   <v>      -0.47272519       0.47272519      -0.49615173 </v>
   <v>       0.48786643       0.11876489      -0.49612591 </v>
   <v>       0.48786643       0.36910154      -0.49612591 </v>
   <v>      -0.48646011       0.02707978      -0.43597412 </v>
   <v>      -0.48646011       0.48646011      -0.43597412 </v>
   <v>      -0.47285507       0.47285507       0.38473900 </v>
   <v>      -0.47285507       0.05428986       0.38473900 </v>
   <v>      -0.48664528       0.02670944       0.44362746 </v>
   <v>      -0.48664528       0.48664528       0.44362746 </v>
   <v>      -0.48483480       0.03033041       0.34739131 </v>
   <v>      -0.48483480       0.48483480       0.34739131 </v>
  </varray>
 </structure>
 <varray name="primitive_index" >
  <v type="int" >        1 </v>
  <v type="int" >       43 </v>
  <v type="int" >       49 </v>
  <v type="int" >       37 </v>
  <v type="int" >      106 </v>
  <v type="int" >       51 </v>
  <v type="int" >       67 </v>
  <v type="int" >      114 </v>
  <v type="int" >       50 </v>
  <v type="int" >       68 </v>
  <v type="int" >       66 </v>
  <v type="int" >        5 </v>
  <v type="int" >        3 </v>
  <v type="int" >      113 </v>
  <v type="int" >       91 </v>
  <v type="int" >        2 </v>
  <v type="int" >       69 </v>
  <v type="int" >       65 </v>
  <v type="int" >       20 </v>
  <v type="int" >       18 </v>
  <v type="int" >       92 </v>
  <v type="int" >       90 </v>
  <v type="int" >       64 </v>
  <v type="int" >       48 </v>
  <v type="int" >        6 </v>
  <v type="int" >        4 </v>
  <v type="int" >       42 </v>
  <v type="int" >       93 </v>
  <v type="int" >       89 </v>
  <v type="int" >       52 </v>
  <v type="int" >       88 </v>
  <v type="int" >       21 </v>
  <v type="int" >       19 </v>
  <v type="int" >       15 </v>
  <v type="int" >       16 </v>
  <v type="int" >       57 </v>
  <v type="int" >       53 </v>
  <v type="int" >       76 </v>
  <v type="int" >        7 </v>
  <v type="int" >       14 </v>
  <v type="int" >       30 </v>
  <v type="int" >       31 </v>
  <v type="int" >       54 </v>
  <v type="int" >       56 </v>
  <v type="int" >       81 </v>
  <v type="int" >       77 </v>
  <v type="int" >       55 </v>
  <v type="int" >       71 </v>
  <v type="int" >       59 </v>
  <v type="int" >       70 </v>
  <v type="int" >       58 </v>
  <v type="int" >       29 </v>
  <v type="int" >       22 </v>
  <v type="int" >       80 </v>
  <v type="int" >       78 </v>
  <v type="int" >       17 </v>
  <v type="int" >       72 </v>
  <v type="int" >       60 </v>
  <v type="int" >        8 </v>
  <v type="int" >       13 </v>
  <v type="int" >       79 </v>
  <v type="int" >       95 </v>
  <v type="int" >       83 </v>
  <v type="int" >       75 </v>
  <v type="int" >       63 </v>
  <v type="int" >       94 </v>
  <v type="int" >       82 </v>
  <v type="int" >        9 </v>
  <v type="int" >       11 </v>
  <v type="int" >       61 </v>
  <v type="int" >       73 </v>
  <v type="int" >       32 </v>
  <v type="int" >       23 </v>
  <v type="int" >       28 </v>
  <v type="int" >       96 </v>
  <v type="int" >       84 </v>
  <v type="int" >       74 </v>
  <v type="int" >       62 </v>
  <v type="int" >       99 </v>
  <v type="int" >       87 </v>
  <v type="int" >       44 </v>
  <v type="int" >       45 </v>
  <v type="int" >       24 </v>
  <v type="int" >       26 </v>
  <v type="int" >       10 </v>
  <v type="int" >       12 </v>
  <v type="int" >      102 </v>
  <v type="int" >      105 </v>
  <v type="int" >       36 </v>
  <v type="int" >       34 </v>
  <v type="int" >       97 </v>
  <v type="int" >       85 </v>
  <v type="int" >      104 </v>
  <v type="int" >      101 </v>
  <v type="int" >       98 </v>
  <v type="int" >       86 </v>
  <v type="int" >       40 </v>
  <v type="int" >       38 </v>
  <v type="int" >      110 </v>
  <v type="int" >      107 </v>
  <v type="int" >       35 </v>
  <v type="int" >       33 </v>
  <v type="int" >      112 </v>
  <v type="int" >      109 </v>
  <v type="int" >       25 </v>
  <v type="int" >       27 </v>
  <v type="int" >      103 </v>
  <v type="int" >      100 </v>
  <v type="int" >       46 </v>
  <v type="int" >       47 </v>
  <v type="int" >      111 </v>
  <v type="int" >      108 </v>
  <v type="int" >       41 </v>
  <v type="int" >       39 </v>
 </varray>
 <kpoints>
  <generation param="listgenerated">
   <i name="divisions" type="int">      20 </i>
   <v>       0.00000000       0.00000000       0.00000000 </v>
   <v>       0.50000000       0.00000000       0.00000000 </v>
   <v>       0.33333333       0.33333333       0.00000000 </v>
   <v>       0.00000000       0.00000000       0.00000000 </v>
  </generation>
  <varray name="kpointlist" >
   <v>       0.00000000       0.00000000       0.00000000 </v>
   <v>       0.02631579       0.00000000       0.00000000 </v>
   <v>       0.05263158       0.00000000       0.00000000 </v>
   <v>       0.07894737       0.00000000       0.00000000 </v>
   <v>       0.10526316       0.00000000       0.00000000 </v>
   <v>       0.13157895       0.00000000       0.00000000 </v>
   <v>       0.15789474       0.00000000       0.00000000 </v>
   <v>       0.18421053       0.00000000       0.00000000 </v>
   <v>       0.21052632       0.00000000       0.00000000 </v>
   <v>       0.23684211       0.00000000       0.00000000 </v>
   <v>       0.26315789       0.00000000       0.00000000 </v>
   <v>       0.28947368       0.00000000       0.00000000 </v>
   <v>       0.31578947       0.00000000       0.00000000 </v>
   <v>       0.34210526       0.00000000       0.00000000 </v>
   <v>       0.36842105       0.00000000       0.00000000 </v>
   <v>       0.39473684       0.00000000       0.00000000 </v>
   <v>       0.42105263       0.00000000       0.00000000 </v>
   <v>       0.44736842       0.00000000       0.00000000 </v>
   <v>       0.47368421       0.00000000       0.00000000 </v>
   <v>       0.50000000       0.00000000       0.00000000 </v>
   <v>       0.50000000       0.00000000       0.00000000 </v>
   <v>       0.49122807       0.01754386       0.00000000 </v>
   <v>       0.48245614       0.03508772       0.00000000 </v>
   <v>       0.47368421       0.05263158       0.00000000 </v>
   <v>       0.46491228       0.07017544       0.00000000 </v>
   <v>       0.45614035       0.08771930       0.00000000 </v>
   <v>       0.44736842       0.10526316       0.00000000 </v>
   <v>       0.43859649       0.12280702       0.00000000 </v>
   <v>       0.42982456       0.14035088       0.00000000 </v>
   <v>       0.42105263       0.15789474       0.00000000 </v>
   <v>       0.41228070       0.17543860       0.00000000 </v>
   <v>       0.40350877       0.19298246       0.00000000 </v>
   <v>       0.39473684       0.21052632       0.00000000 </v>
   <v>       0.38596491       0.22807018       0.00000000 </v>
   <v>       0.37719298       0.24561404       0.00000000 </v>
   <v>       0.36842105       0.26315789       0.00000000 </v>
   <v>       0.35964912       0.28070175       0.00000000 </v>
   <v>       0.35087719       0.29824561       0.00000000 </v>
   <v>       0.34210526       0.31578947       0.00000000 </v>
   <v>       0.33333333       0.33333333       0.00000000 </v>
   <v>       0.33333333       0.33333333       0.00000000 </v>
   <v>       0.31578947       0.31578947       0.00000000 </v>
   <v>       0.29824561       0.29824561       0.00000000 </v>
   <v>       0.28070175       0.28070175       0.00000000 </v>
   <v>       0.26315789       0.26315789       0.00000000 </v>
   <v>       0.24561404       0.24561404       0.00000000 </v>
   <v>       0.22807018       0.22807018       0.00000000 </v>
   <v>       0.21052632       0.21052632       0.00000000 </v>
   <v>       0.19298246       0.19298246       0.00000000 </v>
   <v>       0.17543860       0.17543860       0.00000000 </v>
   <v>       0.15789474       0.15789474       0.00000000 </v>
   <v>       0.14035088       0.14035088       0.00000000 </v>
   <v>       0.12280702       0.12280702       0.00000000 </v>
   <v>       0.10526316       0.10526316       0.00000000 </v>
   <v>       0.08771930       0.08771930       0.00000000 </v>
   <v>       0.07017544       0.07017544       0.00000000 </v>
   <v>       0.05263158       0.05263158       0.00000000 </v>
   <v>       0.03508772       0.03508772       0.00000000 </v>
   <v>       0.01754386       0.01754386       0.00000000 </v>
   <v>       0.00000000       0.00000000       0.00000000 </v>
  </varray>
  <varray name="weights" >
   <v>       0.01666667 </v>
   <v>       0.01666667 </v>
   <v>       0.01666667 </v>
   <v>       0.01666667 </v>
   <v>       0.01666667 </v>
   <v>       0.01666667 </v>
   <v>       0.01666667 </v>
   <v>       0.01666667 </v>
   <v>       0.01666667 </v>
   <v>       0.01666667 </v>
   <v>       0.01666667 </v>
   <v>       0.01666667 </v>
   <v>       0.01666667 </v>
   <v>       0.01666667 </v>
   <v>       0.01666667 </v>
   <v>       0.01666667 </v>
   <v>       0.01666667 </v>
   <v>       0.01666667 </v>
   <v>       0.01666667 </v>
   <v>       0.01666667 </v>
   <v>       0.01666667 </v>
   <v>       0.01666667 </v>
   <v>       0.01666667 </v>
   <v>       0.01666667 </v>
   <v>       0.01666667 </v>
   <v>       0.01666667 </v>
   <v>       0.01666667 </v>
   <v>       0.01666667 </v>
   <v>       0.01666667 </v>
   <v>       0.01666667 </v>
   <v>       0.01666667 </v>
   <v>       0.01666667 </v>
   <v>       0.01666667 </v>
   <v>       0.01666667 </v>
   <v>       0.01666667 </v>
   <v>       0.01666667 </v>
   <v>       0.01666667 </v>
   <v>       0.01666667 </v>
   <v>       0.01666667 </v>
   <v>       0.01666667 </v>
   <v>       0.01666667 </v>
   <v>       0.01666667 </v>
   <v>       0.01666667 </v>
   <v>       0.01666667 </v>
   <v>       0.01666667 </v>
   <v>       0.01666667 </v>
   <v>       0.01666667 </v>
   <v>       0.01666667 </v>
   <v>       0.01666667 </v>
   <v>       0.01666667 </v>
   <v>       0.01666667 </v>
   <v>       0.01666667 </v>
   <v>       0.01666667 </v>
   <v>       0.01666667 </v>
   <v>       0.01666667 </v>
   <v>       0.01666667 </v>
   <v>       0.01666667 </v>
   <v>       0.01666667 </v>
   <v>       0.01666667 </v>
   <v>       0.01666667 </v>
  </varray>
 </kpoints>
 <parameters>
  <separator name="general" >
   <i type="string" name="SYSTEM">Simulation for cell shape cell volume r</i>
   <i type="logical" name="LCOMPAT"> F  </i>
  </separator>
  <separator name="electronic" >
   <i type="string" name="PREC">high</i>
   <i name="ENMAX">    500.00000000</i>
   <i name="ENAUG">    644.87300000</i>
   <i name="EDIFF">      0.00001000</i>
   <i type="int" name="IALGO">    38</i>
   <i type="int" name="IWAVPR">    10</i>
   <i type="int" name="NBANDS">   240</i>
   <i name="NELECT">    342.00000000</i>
   <i type="int" name="TURBO">     0</i>
   <i type="int" name="IRESTART">     0</i>
   <i type="int" name="NREBOOT">     0</i>
   <i type="int" name="NMIN">     0</i>
   <i name="EREF">      0.00000000</i>
   <separator name="electronic smearing" >
    <i type="int" name="ISMEAR">     0</i>
    <i name="SIGMA">      0.01000000</i>
    <i name="KSPACING">      0.50000000</i>
    <i type="logical" name="KGAMMA"> T  </i>
   </separator>
   <separator name="electronic projectors" >
    <i type="logical" name="LREAL"> T  </i>
    <v name="ROPT">     -0.00040000     -0.00040000     -0.00040000</v>
    <i type="int" name="LMAXPAW">  -100</i>
    <i type="int" name="LMAXMIX">     2</i>
    <i type="logical" name="NLSPLINE"> F  </i>
   </separator>
   <separator name="electronic startup" >
    <i type="int" name="ISTART">     1</i>
    <i type="int" name="ICHARG">    11</i>
    <i type="int" name="INIWAV">     1</i>
   </separator>
   <separator name="electronic spin" >
    <i type="int" name="ISPIN">     1</i>
    <i type="logical" name="LNONCOLLINEAR"> F  </i>
    <v name="MAGMOM">      1.00000000      1.00000000      1.00000000      1.00000000      1.00000000      1.00000000      1.00000000      1.00000000      1.00000000      1.00000000      1.00000000      1.00000000      1.00000000      1.00000000      1.00000000      1.00000000      1.00000000      1.00000000      1.00000000      1.00000000
      1.00000000      1.00000000      1.00000000      1.00000000      1.00000000      1.00000000      1.00000000      1.00000000      1.00000000      1.00000000      1.00000000      1.00000000      1.00000000      1.00000000      1.00000000      1.00000000      1.00000000      1.00000000      1.00000000      1.00000000
      1.00000000      1.00000000      1.00000000      1.00000000      1.00000000      1.00000000      1.00000000      1.00000000      1.00000000      1.00000000      1.00000000      1.00000000      1.00000000      1.00000000      1.00000000      1.00000000      1.00000000      1.00000000      1.00000000      1.00000000
      1.00000000      1.00000000      1.00000000      1.00000000      1.00000000      1.00000000      1.00000000      1.00000000      1.00000000      1.00000000      1.00000000      1.00000000      1.00000000      1.00000000      1.00000000      1.00000000      1.00000000      1.00000000      1.00000000      1.00000000
      1.00000000      1.00000000      1.00000000      1.00000000      1.00000000      1.00000000      1.00000000      1.00000000      1.00000000      1.00000000      1.00000000      1.00000000      1.00000000      1.00000000      1.00000000      1.00000000      1.00000000      1.00000000      1.00000000      1.00000000
      1.00000000      1.00000000      1.00000000      1.00000000      1.00000000      1.00000000      1.00000000      1.00000000      1.00000000      1.00000000      1.00000000      1.00000000      1.00000000      1.00000000</v>
    <i name="NUPDOWN">     -1.00000000</i>
    <i type="logical" name="LSORBIT"> F  </i>
    <v name="SAXIS">      0.00000000      0.00000000      1.00000000</v>
    <i type="logical" name="LSPIRAL"> F  </i>
    <v name="QSPIRAL">      0.00000000      0.00000000      0.00000000</v>
    <i type="logical" name="LZEROZ"> F  </i>
   </separator>
   <separator name="electronic exchange-correlation" >
    <i type="logical" name="LASPH"> F  </i>
    <i type="logical" name="LMETAGGA"> F  </i>
   </separator>
   <separator name="electronic convergence" >
    <i type="int" name="NELM">   200</i>
    <i type="int" name="NELMDL">     0</i>
    <i type="int" name="NELMIN">     2</i>
    <i name="ENINI">    500.00000000</i>
    <separator name="electronic convergence detail" >
     <i type="logical" name="LDIAG"> T  </i>
     <i type="logical" name="LSUBROT"> F  </i>
     <i name="WEIMIN">      0.00000000</i>
     <i name="EBREAK">      0.00000001</i>
     <i name="DEPER">      0.30000000</i>
     <i type="int" name="NRMM">     4</i>
     <i name="TIME">      0.40000000</i>
    </separator>
   </separator>
   <separator name="electronic mixer" >
    <i name="AMIX">      0.40000000</i>
    <i name="BMIX">      1.00000000</i>
    <i name="AMIN">      0.10000000</i>
    <i name="AMIX_MAG">      1.60000000</i>
    <i name="BMIX_MAG">      1.00000000</i>
    <separator name="electronic mixer details" >
     <i type="int" name="IMIX">     4</i>
     <i type="logical" name="MIXFIRST"> F  </i>
     <i type="int" name="MAXMIX">   -45</i>
     <i name="WC">    100.00000000</i>
     <i type="int" name="INIMIX">     1</i>
     <i type="int" name="MIXPRE">     1</i>
     <i type="int" name="MREMOVE">     5</i>
    </separator>
   </separator>
   <separator name="electronic dipolcorrection" >
    <i type="logical" name="LDIPOL"> F  </i>
    <i type="logical" name="LMONO"> F  </i>
    <i type="int" name="IDIPOL">     0</i>
    <i name="EPSILON">      1.00000000</i>
    <v name="DIPOL">   -100.00000000   -100.00000000   -100.00000000</v>
    <i name="EFIELD">      0.00000000</i>
   </separator>
  </separator>
  <separator name="grids" >
   <i type="int" name="NGX">   224</i>
   <i type="int" name="NGY">   224</i>
   <i type="int" name="NGZ">   150</i>
   <i type="int" name="NGXF">   336</i>
   <i type="int" name="NGYF">   336</i>
   <i type="int" name="NGZF">   224</i>
   <i type="logical" name="ADDGRID"> F  </i>
  </separator>
  <separator name="ionic" >
   <i type="int" name="NSW">     0</i>
   <i type="int" name="IBRION">    -1</i>
   <i type="int" name="MDALGO">     0</i>
   <i type="int" name="ISIF">     2</i>
   <i name="PSTRESS">      0.00000000</i>
   <i name="EDIFFG">     -0.01000000</i>
   <i type="int" name="NFREE">     0</i>
   <i name="POTIM">      0.30000000</i>
   <i name="SMASS">     -3.00000000</i>
   <i name="SCALEE">      1.00000000</i>
  </separator>
  <separator name="ionic md" >
   <i name="TEBEG">      0.00010000</i>
   <i name="TEEND">      0.00010000</i>
   <i type="int" name="NBLOCK">     1</i>
   <i type="int" name="KBLOCK">     1</i>
   <i type="int" name="NPACO">   256</i>
   <i name="APACO">     16.00000000</i>
  </separator>
  <separator name="symmetry" >
   <i type="int" name="ISYM">     2</i>
   <i name="SYMPREC">      0.00001000</i>
  </separator>
  <separator name="dos" >
   <i type="int" name="LORBIT">     0</i>
   <v name="RWIGS">     -1.00000000     -1.00000000     -1.00000000</v>
   <i type="int" name="NEDOS">   301</i>
   <i name="EMIN">     10.00000000</i>
   <i name="EMAX">    -10.00000000</i>
   <i name="EFERMI">      0.00000000</i>
  </separator>
  <separator name="writing" >
   <i type="int" name="NWRITE">     0</i>
   <i type="logical" name="LWAVE"> F  </i>
   <i type="logical" name="LDOWNSAMPLE"> F  </i>
   <i type="logical" name="LCHARG"> F  </i>
   <i type="logical" name="LPARD"> F  </i>
   <i type="logical" name="LVTOT"> F  </i>
   <i type="logical" name="LVHAR"> F  </i>
   <i type="logical" name="LELF"> F  </i>
   <i type="logical" name="LOPTICS"> F  </i>
   <v name="STM">      0.00000000      0.00000000      0.00000000      0.00000000      0.00000000      0.00000000      0.00000000</v>
  </separator>
  <separator name="performance" >
   <i type="int" name="NPAR">    16</i>
   <i type="int" name="NSIM">     4</i>
   <i type="int" name="NBLK">    -1</i>
   <i type="logical" name="LPLANE"> T  </i>
   <i type="logical" name="LSCALAPACK"> T  </i>
   <i type="logical" name="LSCAAWARE"> F  </i>
   <i type="logical" name="LSCALU"> F  </i>
   <i type="logical" name="LASYNC"> F  </i>
   <i type="logical" name="LORBITALREAL"> F  </i>
  </separator>
  <separator name="miscellaneous" >
   <i type="int" name="IDIOT">     3</i>
   <i type="int" name="ISPECIAL">     0</i>
   <i type="logical" name="LMUSIC"> F  </i>
   <v name="POMASS">      1.00000000     16.00000000     12.01100000</v>
   <v name="DARWINR">      0.00000000      0.00000000      0.00000000</v>
   <v name="DARWINV">      1.00000000      1.00000000      1.00000000</v>
   <i type="logical" name="LCORR"> T  </i>
  </separator>
  <i type="logical" name="GGA_COMPAT"> T  </i>
  <i type="logical" name="LBERRY"> F  </i>
  <i type="int" name="ICORELEVEL">     0</i>
  <i type="logical" name="LDAU"> F  </i>
  <i type="int" name="I_CONSTRAINED_M">     0</i>
  <separator name="electronic exchange-correlation" >
   <i type="string" name="GGA">PE</i>
   <i type="int" name="VOSKOWN">     0</i>
   <i type="logical" name="LHFCALC"> F  </i>
   <i type="string" name="PRECFOCK"></i>
   <i type="logical" name="LSYMGRAD"> F  </i>
   <i type="logical" name="LHFONE"> F  </i>
   <i type="logical" name="LRHFCALC"> F  </i>
   <i type="logical" name="LTHOMAS"> F  </i>
   <i type="logical" name="LMODELHF"> F  </i>
   <i name="ENCUT4O">     -1.00000000</i>
   <i type="int" name="EXXOEP">     0</i>
   <i type="int" name="FOURORBIT">     0</i>
   <i name="AEXX">      0.00000000</i>
   <i name="HFALPHA">      0.00000000</i>
   <i name="MCALPHA">      0.00000000</i>
   <i name="ALDAX">      1.00000000</i>
   <i name="AGGAX">      1.00000000</i>
   <i name="ALDAC">      1.00000000</i>
   <i name="AGGAC">      1.00000000</i>
   <i type="int" name="NKREDX">     1</i>
   <i type="int" name="NKREDY">     1</i>
   <i type="int" name="NKREDZ">     1</i>
   <i type="logical" name="SHIFTRED"> F  </i>
   <i type="logical" name="ODDONLY"> F  </i>
   <i type="logical" name="EVENONLY"> F  </i>
   <i type="int" name="LMAXFOCK">     0</i>
   <i type="int" name="NMAXFOCKAE">     0</i>
   <i type="logical" name="LFOCKAEDFT"> F  </i>
   <i name="HFSCREEN">      0.00000000</i>
   <i name="HFSCREENC">      0.00000000</i>
   <i type="int" name="NBANDSGWLOW">     0</i>
  </separator>
  <separator name="vdW DFT" >
   <i type="logical" name="LUSE_VDW"> F  </i>
   <i name="Zab_VDW">     -0.84910000</i>
   <i name="PARAM1">      0.12340000</i>
   <i name="PARAM2">      1.00000000</i>
   <i name="PARAM3">      0.00000000</i>
  </separator>
  <separator name="model GW" >
   <i type="int" name="MODEL_GW">     0</i>
   <i name="MODEL_EPS0">     82.29228274</i>
   <i name="MODEL_ALPHA">      1.00000000</i>
  </separator>
  <separator name="linear response parameters" >
   <i type="logical" name="LEPSILON"> F  </i>
   <i type="logical" name="LRPA"> F  </i>
   <i type="logical" name="LNABLA"> F  </i>
   <i type="logical" name="LVEL"> F  </i>
   <i type="int" name="KINTER">     0</i>
   <i name="CSHIFT">      0.10000000</i>
   <i name="OMEGAMAX">     -1.00000000</i>
   <i name="DEG_THRESHOLD">      0.00200000</i>
   <i name="RTIME">     -0.10000000</i>
   <i name="WPLASMAI">      0.00000000</i>
   <v name="DFIELD">      0.00000000      0.00000000      0.00000000</v>
   <v name="WPLASMA">      0.00000000      0.00000000      0.00000000      0.00000000      0.00000000      0.00000000      0.00000000      0.00000000      0.00000000</v>
  </separator>
  <separator name="orbital magnetization" >
   <i type="logical" name="NUCIND"> F  </i>
   <v name="MAGPOS">      0.00000000      0.00000000      0.00000000</v>
   <i type="logical" name="LNICSALL"> T  </i>
   <i type="logical" name="ORBITALMAG"> F  </i>
   <i type="logical" name="LMAGBLOCH"> F  </i>
   <i type="logical" name="LCHIMAG"> F  </i>
   <i type="logical" name="LGAUGE"> T  </i>
   <i type="int" name="MAGATOM">     0</i>
   <v name="MAGDIPOL">      0.00000000      0.00000000      0.00000000</v>
   <v name="AVECCONST">      0.00000000      0.00000000      0.00000000</v>
  </separator>
  <separator name="response functions" >
   <i type="logical" name="LADDER"> F  </i>
   <i type="logical" name="LRPAFORCE"> F  </i>
   <i type="logical" name="LFXC"> F  </i>
   <i type="logical" name="LHARTREE"> T  </i>
   <i type="int" name="IBSE">     0</i>
   <v type="int" name="KPOINT">    -1     0     0     0</v>
   <i type="logical" name="LTCTE"> F  </i>
   <i type="logical" name="LTETE"> F  </i>
   <i type="logical" name="LTRIPLET"> F  </i>
   <i type="logical" name="LFXCEPS"> F  </i>
   <i type="logical" name="LFXHEG"> F  </i>
   <i type="int" name="NATURALO">     2</i>
   <i type="logical" name="L2ORDER"> F  </i>
   <i type="logical" name="LMP2LT"> F  </i>
   <i type="logical" name="LUSEW"> F  </i>
   <i name="ENCUTGW">     -2.00000000</i>
   <i name="ENCUTGWSOFT">     -2.00000000</i>
   <i name="ENCUTLF">     -1.00000000</i>
   <i type="int" name="LMAXMP2">    -1</i>
   <i name="SCISSOR">      0.00000000</i>
   <i type="int" name="NOMEGA">     0</i>
   <i type="int" name="NOMEGAR">     0</i>
   <i type="int" name="NBANDSGW">    -1</i>
   <i type="int" name="NBANDSO">    -1</i>
   <i type="int" name="NBANDSV">    -1</i>
   <i type="int" name="NELM">   200</i>
   <i type="int" name="NELMHF">     1</i>
   <i type="int" name="DIM">     3</i>
   <i type="int" name="ANTIRES">     0</i>
   <i name="OMEGAMAX">    -30.00000000</i>
   <i name="OMEGAMIN">    -30.00000000</i>
   <i name="OMEGATL">   -200.00000000</i>
   <i type="int" name="OMEGAGRID">   140</i>
   <i name="CSHIFT">     -0.10000000</i>
   <i type="logical" name="SELFENERGY"> F  </i>
   <i type="logical" name="LSPECTRAL"> F  </i>
   <i type="logical" name="LSPECTRALGW"> F  </i>
   <i type="logical" name="LSINGLES"> F  </i>
   <i type="logical" name="LFERMIGW"> F  </i>
   <i type="logical" name="ODDONLYGW"> F  </i>
   <i type="logical" name="EVENONLYGW"> F  </i>
   <i type="int" name="NKREDLFX">     1</i>
   <i type="int" name="NKREDLFY">     1</i>
   <i type="int" name="NKREDLFZ">     1</i>
   <i type="int" name="MAXMEM">  2800</i>
   <i type="int" name="TELESCOPE">     0</i>
   <i type="int" name="TAUPAR">     1</i>
   <i type="int" name="OMEGAPAR">    -1</i>
   <i name="LAMBDA">      1.00000000</i>
  </separator>
  <separator name="External order field" >
   <i name="OFIELD_KAPPA">      0.00000000</i>
   <v name="OFIELD_K">      0.00000000      0.00000000      0.00000000</v>
   <i name="OFIELD_Q6_NEAR">      0.00000000</i>
   <i name="OFIELD_Q6_FAR">      0.00000000</i>
   <i name="OFIELD_A">      0.00000000</i>
  </separator>
  <separator name="solvation model" >
   <i type="logical" name="LSOL"> F  </i>
  </separator>
 </parameters>
 <atominfo>
  <atoms>     114 </atoms>
  <types>       3 </types>
  <array name="atoms" >
   <dimension dim="1">ion</dimension>
   <field type="string">element</field>
   <field type="int">atomtype</field>
   <set>
    <rc><c>H </c><c>   1</c></rc>
    <rc><c>H </c><c>   1</c></rc>
    <rc><c>H </c><c>   1</c></rc>
    <rc><c>H </c><c>   1</c></rc>
    <rc><c>H </c><c>   1</c></rc>
    <rc><c>H </c><c>   1</c></rc>
    <rc><c>H </c><c>   1</c></rc>
    <rc><c>H </c><c>   1</c></rc>
    <rc><c>H </c><c>   1</c></rc>
    <rc><c>H </c><c>   1</c></rc>
    <rc><c>H </c><c>   1</c></rc>
    <rc><c>H </c><c>   1</c></rc>
    <rc><c>H </c><c>   1</c></rc>
    <rc><c>H </c><c>   1</c></rc>
    <rc><c>H </c><c>   1</c></rc>
    <rc><c>H </c><c>   1</c></rc>
    <rc><c>H </c><c>   1</c></rc>
    <rc><c>H </c><c>   1</c></rc>
    <rc><c>H </c><c>   1</c></rc>
    <rc><c>H </c><c>   1</c></rc>
    <rc><c>H </c><c>   1</c></rc>
    <rc><c>H </c><c>   1</c></rc>
    <rc><c>H </c><c>   1</c></rc>
    <rc><c>H </c><c>   1</c></rc>
    <rc><c>H </c><c>   1</c></rc>
    <rc><c>H </c><c>   1</c></rc>
    <rc><c>H </c><c>   1</c></rc>
    <rc><c>H </c><c>   1</c></rc>
    <rc><c>H </c><c>   1</c></rc>
    <rc><c>H </c><c>   1</c></rc>
    <rc><c>H </c><c>   1</c></rc>
    <rc><c>H </c><c>   1</c></rc>
    <rc><c>H </c><c>   1</c></rc>
    <rc><c>H </c><c>   1</c></rc>
    <rc><c>H </c><c>   1</c></rc>
    <rc><c>H </c><c>   1</c></rc>
    <rc><c>H </c><c>   1</c></rc>
    <rc><c>H </c><c>   1</c></rc>
    <rc><c>H </c><c>   1</c></rc>
    <rc><c>H </c><c>   1</c></rc>
    <rc><c>H </c><c>   1</c></rc>
    <rc><c>H </c><c>   1</c></rc>
    <rc><c>O </c><c>   2</c></rc>
    <rc><c>O </c><c>   2</c></rc>
    <rc><c>O </c><c>   2</c></rc>
    <rc><c>O </c><c>   2</c></rc>
    <rc><c>O </c><c>   2</c></rc>
    <rc><c>O </c><c>   2</c></rc>
    <rc><c>C </c><c>   3</c></rc>
    <rc><c>C </c><c>   3</c></rc>
    <rc><c>C </c><c>   3</c></rc>
    <rc><c>C </c><c>   3</c></rc>
    <rc><c>C </c><c>   3</c></rc>
    <rc><c>C </c><c>   3</c></rc>
    <rc><c>C </c><c>   3</c></rc>
    <rc><c>C </c><c>   3</c></rc>
    <rc><c>C </c><c>   3</c></rc>
    <rc><c>C </c><c>   3</c></rc>
    <rc><c>C </c><c>   3</c></rc>
    <rc><c>C </c><c>   3</c></rc>
    <rc><c>C </c><c>   3</c></rc>
    <rc><c>C </c><c>   3</c></rc>
    <rc><c>C </c><c>   3</c></rc>
    <rc><c>C </c><c>   3</c></rc>
    <rc><c>C </c><c>   3</c></rc>
    <rc><c>C </c><c>   3</c></rc>
    <rc><c>C </c><c>   3</c></rc>
    <rc><c>C </c><c>   3</c></rc>
    <rc><c>C </c><c>   3</c></rc>
    <rc><c>C </c><c>   3</c></rc>
    <rc><c>C </c><c>   3</c></rc>
    <rc><c>C </c><c>   3</c></rc>
    <rc><c>C </c><c>   3</c></rc>
    <rc><c>C </c><c>   3</c></rc>
    <rc><c>C </c><c>   3</c></rc>
    <rc><c>C </c><c>   3</c></rc>
    <rc><c>C </c><c>   3</c></rc>
    <rc><c>C </c><c>   3</c></rc>
    <rc><c>C </c><c>   3</c></rc>
    <rc><c>C </c><c>   3</c></rc>
    <rc><c>C </c><c>   3</c></rc>
    <rc><c>C </c><c>   3</c></rc>
    <rc><c>C </c><c>   3</c></rc>
    <rc><c>C </c><c>   3</c></rc>
    <rc><c>C </c><c>   3</c></rc>
    <rc><c>C </c><c>   3</c></rc>
    <rc><c>C </c><c>   3</c></rc>
    <rc><c>C </c><c>   3</c></rc>
    <rc><c>C </c><c>   3</c></rc>
    <rc><c>C </c><c>   3</c></rc>
    <rc><c>C </c><c>   3</c></rc>
    <rc><c>C </c><c>   3</c></rc>
    <rc><c>C </c><c>   3</c></rc>
    <rc><c>C </c><c>   3</c></rc>
    <rc><c>C </c><c>   3</c></rc>
    <rc><c>C </c><c>   3</c></rc>
    <rc><c>C </c><c>   3</c></rc>
    <rc><c>C </c><c>   3</c></rc>
    <rc><c>C </c><c>   3</c></rc>
    <rc><c>C </c><c>   3</c></rc>
    <rc><c>C </c><c>   3</c></rc>
    <rc><c>C </c><c>   3</c></rc>
    <rc><c>C </c><c>   3</c></rc>
    <rc><c>C </c><c>   3</c></rc>
    <rc><c>C </c><c>   3</c></rc>
    <rc><c>C </c><c>   3</c></rc>
    <rc><c>C </c><c>   3</c></rc>
    <rc><c>C </c><c>   3</c></rc>
    <rc><c>C </c><c>   3</c></rc>
    <rc><c>C </c><c>   3</c></rc>
    <rc><c>C </c><c>   3</c></rc>
    <rc><c>C </c><c>   3</c></rc>
    <rc><c>C </c><c>   3</c></rc>
    <rc><c>C </c><c>   3</c></rc>
   </set>
  </array>
  <array name="atomtypes" >
   <dimension dim="1">type</dimension>
   <field type="int">atomspertype</field>
   <field type="string">element</field>
   <field>mass</field>
   <field>valence</field>
   <field type="string">pseudopotential</field>
   <set>
    <rc><c>  42</c><c>H </c><c>      1.00000000</c><c>      1.00000000</c><c>  PAW_PBE H 15Jun2001                   </c></rc>
    <rc><c>   6</c><c>O </c><c>     16.00000000</c><c>      6.00000000</c><c>  PAW_PBE O 08Apr2002                   </c></rc>
    <rc><c>  66</c><c>C </c><c>     12.01100000</c><c>      4.00000000</c><c>  PAW_PBE C 08Apr2002                   </c></rc>
   </set>
  </array>
 </atominfo>
 <structure name="initialpos" >
  <crystal>
   <varray name="basis" >
    <v>      30.04526519       0.00000000       0.00000000 </v>
    <v>     -15.02263259      26.01996292       0.00000000 </v>
    <v>       0.00000000       0.00000000      20.00000000 </v>
   </varray>
   <i name="volume">  15635.53372071 </i>
   <varray name="rec_basis" >
    <v>       0.03328311       0.01921602       0.00000000 </v>
    <v>       0.00000000       0.03843203       0.00000000 </v>
    <v>       0.00000000       0.00000000       0.05000000 </v>
   </varray>
  </crystal>
  <varray name="positions" >
   <v>       0.03027239       0.51513619       0.66149474 </v>
   <v>       0.04853573       0.52426786       0.39790168 </v>
   <v>       0.11875906       0.48786069       0.50521403 </v>
   <v>       0.21252866       0.53432575       0.50427293 </v>
   <v>       0.11875906       0.63089837       0.50521403 </v>
   <v>       0.21252866       0.67820291       0.50427293 </v>
   <v>       0.32179709       0.78747134       0.50427293 </v>
   <v>       0.36910163       0.88124094       0.50521403 </v>
   <v>       0.46567425       0.78747134       0.50427293 </v>
   <v>       0.51213931       0.88124094       0.50521403 </v>
   <v>       0.46567425       0.67820291       0.50427293 </v>
   <v>       0.51213931       0.63089837       0.50521403 </v>
   <v>       0.36910163       0.48786069       0.50521403 </v>
   <v>       0.32179709       0.53432575       0.50427293 </v>
   <v>       0.28580792       0.57161584       0.50430472 </v>
   <v>       0.28580792       0.71419208       0.50430472 </v>
   <v>       0.42838416       0.71419208       0.50430472 </v>
   <v>       0.88123511       0.51213357       0.50387409 </v>
   <v>       0.78745477       0.46566529       0.50476325 </v>
   <v>       0.88123511       0.36910154       0.50387409 </v>
   <v>       0.78745477       0.32178948       0.50476325 </v>
   <v>       0.67821052       0.21254523       0.50476325 </v>
   <v>       0.63089846       0.11876489       0.50387409 </v>
   <v>       0.53433471       0.21254523       0.50476325 </v>
   <v>       0.48786643       0.11876489       0.50387409 </v>
   <v>       0.53433471       0.32178948       0.50476325 </v>
   <v>       0.48786643       0.36910154       0.50387409 </v>
   <v>       0.63089846       0.51213357       0.50387409 </v>
   <v>       0.67821052       0.46566529       0.50476325 </v>
   <v>       0.71419053       0.42838105       0.50469468 </v>
   <v>       0.71419053       0.28580947       0.50469468 </v>
   <v>       0.57161895       0.28580947       0.50469468 </v>
   <v>       0.52429213       0.47570787       0.61100656 </v>
   <v>       0.48486381       0.51513619       0.66149474 </v>
   <v>       0.52429213       0.04858426       0.61100656 </v>
   <v>       0.48486381       0.96972761       0.66149474 </v>
   <v>       0.95141574       0.47570787       0.61100656 </v>
   <v>       0.47573214       0.52426786       0.39790168 </v>
   <v>       0.51516520       0.48483480       0.34739131 </v>
   <v>       0.47573214       0.95146427       0.39790168 </v>
   <v>       0.51516520       0.03033041       0.34739131 </v>
   <v>       0.96966959       0.48483480       0.34739131 </v>
   <v>       0.05421067       0.52710533       0.62412405 </v>
   <v>       0.47289467       0.52710533       0.62412405 </v>
   <v>       0.47289467       0.94578933       0.62412405 </v>
   <v>       0.52714493       0.47285507       0.38473900 </v>
   <v>       0.52714493       0.05428986       0.38473900 </v>
   <v>       0.94571014       0.47285507       0.38473900 </v>
   <v>       0.02664659       0.51332329       0.56525448 </v>
   <v>       0.02702545       0.51351272       0.44487372 </v>
   <v>       0.05450424       0.52725212       0.50505301 </v>
   <v>       0.27877702       0.63938851       0.50416859 </v>
   <v>       0.30668129       0.61336258       0.50418405 </v>
   <v>       0.36061149       0.63938851       0.50416859 </v>
   <v>       0.38663742       0.69331871       0.50418405 </v>
   <v>       0.36061149       0.72122298       0.50416859 </v>
   <v>       0.30668129       0.69331871       0.50418405 </v>
   <v>       0.38925778       0.61074222       0.50426089 </v>
   <v>       0.36362899       0.55663781       0.50438275 </v>
   <v>       0.39032538       0.52980229       0.50480552 </v>
   <v>       0.44415118       0.55584882       0.50497891 </v>
   <v>       0.47019771       0.60967462       0.50480552 </v>
   <v>       0.44336219       0.63637101       0.50438275 </v>
   <v>       0.22148445       0.61074222       0.50426089 </v>
   <v>       0.19300882       0.55663781       0.50438275 </v>
   <v>       0.13947690       0.52980229       0.50480552 </v>
   <v>       0.11169763       0.55584882       0.50497891 </v>
   <v>       0.13947690       0.60967462       0.50480552 </v>
   <v>       0.19300882       0.63637101       0.50438275 </v>
   <v>       0.38925778       0.77851555       0.50426089 </v>
   <v>       0.36362899       0.80699118       0.50438275 </v>
   <v>       0.39032538       0.86052310       0.50480552 </v>
   <v>       0.44415118       0.88830237       0.50497891 </v>
   <v>       0.47019771       0.86052310       0.50480552 </v>
   <v>       0.44336219       0.80699118       0.50438275 </v>
   <v>       0.72121989       0.36060994       0.50480310 </v>
   <v>       0.69331811       0.38663623       0.50479216 </v>
   <v>       0.63939006       0.36060994       0.50480310 </v>
   <v>       0.61336377       0.30668189       0.50479216 </v>
   <v>       0.63939006       0.27878011       0.50480310 </v>
   <v>       0.69331811       0.30668189       0.50479216 </v>
   <v>       0.61074687       0.38925313       0.50472753 </v>
   <v>       0.63638070       0.44335712       0.50463232 </v>
   <v>       0.60968658       0.47019190       0.50421117 </v>
   <v>       0.55586401       0.44413599       0.50398693 </v>
   <v>       0.52980810       0.39031342       0.50421117 </v>
   <v>       0.55664288       0.36361930       0.50463232 </v>
   <v>       0.77850627       0.38925313       0.50472753 </v>
   <v>       0.80697642       0.44335712       0.50463232 </v>
   <v>       0.86050531       0.47019190       0.50421117 </v>
   <v>       0.88827199       0.44413599       0.50398693 </v>
   <v>       0.86050531       0.39031342       0.50421117 </v>
   <v>       0.80697642       0.36361930       0.50463232 </v>
   <v>       0.61074687       0.22149373       0.50472753 </v>
   <v>       0.63638070       0.19302358       0.50463232 </v>
   <v>       0.60968658       0.13949469       0.50421117 </v>
   <v>       0.55586401       0.11172801       0.50398693 </v>
   <v>       0.52980810       0.13949469       0.50421117 </v>
   <v>       0.55664288       0.19302358       0.50463232 </v>
   <v>       0.51353989       0.48646011       0.56402588 </v>
   <v>       0.48667671       0.51332329       0.56525448 </v>
   <v>       0.47274788       0.52725212       0.50505301 </v>
   <v>       0.51353989       0.02707978       0.56402588 </v>
   <v>       0.48667671       0.97335341       0.56525448 </v>
   <v>       0.47274788       0.94549576       0.50505301 </v>
   <v>       0.97292022       0.48646011       0.56402588 </v>
   <v>       0.48648728       0.51351272       0.44487372 </v>
   <v>       0.51335472       0.48664528       0.44362746 </v>
   <v>       0.52727481       0.47272519       0.50384827 </v>
   <v>       0.48648728       0.97297455       0.44487372 </v>
   <v>       0.51335472       0.02670944       0.44362746 </v>
   <v>       0.52727481       0.05454962       0.50384827 </v>
   <v>       0.97329056       0.48664528       0.44362746 </v>
   <v>       0.94545038       0.47272519       0.50384827 </v>
  </varray>
 </structure>
 <calculation>
  <scstep>
   <time name="dav">  660.89  668.18</time>
   <time name="total">  661.15  668.45</time>
   <energy>
    <i name="alphaZ">     34.92490004 </i>
    <i name="ewald">  40914.74642363 </i>
    <i name="hartreedc"> -51495.55675542 </i>
    <i name="XCdc">   1189.79421341 </i>
    <i name="pawpsdc">  30579.92974376 </i>
    <i name="pawaedc"> -30638.32965314 </i>
    <i name="eentropy">     -0.00000000 </i>
    <i name="bandstr">  -4203.61368304 </i>
    <i name="atom">  12830.36449281 </i>
    <i name="e_fr_energy">   -787.74031795 </i>
    <i name="e_wo_entrp">   -787.74031795 </i>
    <i name="e_0_energy">   -787.74031795 </i>
   </energy>
  </scstep>
  <scstep>
   <time name="dav">  720.64  728.53</time>
   <time name="total">  720.65  728.53</time>
   <energy>
    <i name="e_fr_energy">   -788.13321518 </i>
    <i name="e_wo_entrp">   -788.13321518 </i>
    <i name="e_0_energy">   -788.13321518 </i>
   </energy>
  </scstep>
  <scstep>
   <time name="dav">  798.15  807.07</time>
   <time name="total">  798.15  807.07</time>
   <energy>
    <i name="e_fr_energy">   -788.14430689 </i>
    <i name="e_wo_entrp">   -788.14430689 </i>
    <i name="e_0_energy">   -788.14430689 </i>
   </energy>
  </scstep>
  <scstep>
   <time name="dav">  711.75  719.86</time>
   <time name="total">  711.76  719.86</time>
   <energy>
    <i name="e_fr_energy">   -788.14450399 </i>
    <i name="e_wo_entrp">   -788.14450399 </i>
    <i name="e_0_energy">   -788.14450399 </i>
   </energy>
  </scstep>
  <scstep>
   <time name="dav">  674.71  682.37</time>
   <time name="total">  674.71  682.37</time>
   <energy>
    <i name="e_fr_energy">   -788.14451468 </i>
    <i name="e_wo_entrp">   -788.14451468 </i>
    <i name="e_0_energy">   -788.14451468 </i>
   </energy>
  </scstep>
  <scstep>
   <time name="dav">  550.89  557.19</time>
   <time name="total">  550.89  557.19</time>
   <energy>
    <i name="alphaZ">     34.92490004 </i>
    <i name="ewald">  40914.74642363 </i>
    <i name="hartreedc"> -51495.55675542 </i>
    <i name="XCdc">   1189.79421341 </i>
    <i name="pawpsdc">  30579.92974376 </i>
    <i name="pawaedc"> -30638.32965314 </i>
    <i name="eentropy">     -0.00000000 </i>
    <i name="bandstr">  -4204.01788006 </i>
    <i name="atom">  12830.36449281 </i>
    <i name="e_fr_energy">   -788.14451497 </i>
    <i name="e_wo_entrp">   -788.14451497 </i>
    <i name="e_0_energy">   -788.14451497 </i>
   </energy>
  </scstep>
  <structure>
   <crystal>
    <varray name="basis" >
     <v>      30.04526519       0.00000000       0.00000000 </v>
     <v>     -15.02263259      26.01996292       0.00000000 </v>
     <v>       0.00000000       0.00000000      20.00000000 </v>
    </varray>
    <i name="volume">  15635.53372071 </i>
    <varray name="rec_basis" >
     <v>       0.03328311       0.01921602       0.00000000 </v>
     <v>       0.00000000       0.03843203       0.00000000 </v>
     <v>       0.00000000       0.00000000       0.05000000 </v>
    </varray>
   </crystal>
   <varray name="positions" >
    <v>       0.03027239       0.51513619       0.66149474 </v>
    <v>       0.04853573       0.52426786       0.39790168 </v>
    <v>       0.11875906       0.48786069       0.50521403 </v>
    <v>       0.21252866       0.53432575       0.50427293 </v>
    <v>       0.11875906       0.63089837       0.50521403 </v>
    <v>       0.21252866       0.67820291       0.50427293 </v>
    <v>       0.32179709       0.78747134       0.50427293 </v>
    <v>       0.36910163       0.88124094       0.50521403 </v>
    <v>       0.46567425       0.78747134       0.50427293 </v>
    <v>       0.51213931       0.88124094       0.50521403 </v>
    <v>       0.46567425       0.67820291       0.50427293 </v>
    <v>       0.51213931       0.63089837       0.50521403 </v>
    <v>       0.36910163       0.48786069       0.50521403 </v>
    <v>       0.32179709       0.53432575       0.50427293 </v>
    <v>       0.28580792       0.57161584       0.50430472 </v>
    <v>       0.28580792       0.71419208       0.50430472 </v>
    <v>       0.42838416       0.71419208       0.50430472 </v>
    <v>       0.88123511       0.51213357       0.50387409 </v>
    <v>       0.78745477       0.46566529       0.50476325 </v>
    <v>       0.88123511       0.36910154       0.50387409 </v>
    <v>       0.78745477       0.32178948       0.50476325 </v>
    <v>       0.67821052       0.21254523       0.50476325 </v>
    <v>       0.63089846       0.11876489       0.50387409 </v>
    <v>       0.53433471       0.21254523       0.50476325 </v>
    <v>       0.48786643       0.11876489       0.50387409 </v>
    <v>       0.53433471       0.32178948       0.50476325 </v>
    <v>       0.48786643       0.36910154       0.50387409 </v>
    <v>       0.63089846       0.51213357       0.50387409 </v>
    <v>       0.67821052       0.46566529       0.50476325 </v>
    <v>       0.71419053       0.42838105       0.50469468 </v>
    <v>       0.71419053       0.28580947       0.50469468 </v>
    <v>       0.57161895       0.28580947       0.50469468 </v>
    <v>       0.52429213       0.47570787       0.61100656 </v>
    <v>       0.48486381       0.51513619       0.66149474 </v>
    <v>       0.52429213       0.04858426       0.61100656 </v>
    <v>       0.48486381       0.96972761       0.66149474 </v>
    <v>       0.95141574       0.47570787       0.61100656 </v>
    <v>       0.47573214       0.52426786       0.39790168 </v>
    <v>       0.51516520       0.48483480       0.34739131 </v>
    <v>       0.47573214       0.95146427       0.39790168 </v>
    <v>       0.51516520       0.03033041       0.34739131 </v>
    <v>       0.96966959       0.48483480       0.34739131 </v>
    <v>       0.05421067       0.52710533       0.62412405 </v>
    <v>       0.47289467       0.52710533       0.62412405 </v>
    <v>       0.47289467       0.94578933       0.62412405 </v>
    <v>       0.52714493       0.47285507       0.38473900 </v>
    <v>       0.52714493       0.05428986       0.38473900 </v>
    <v>       0.94571014       0.47285507       0.38473900 </v>
    <v>       0.02664659       0.51332329       0.56525448 </v>
    <v>       0.02702545       0.51351272       0.44487372 </v>
    <v>       0.05450424       0.52725212       0.50505301 </v>
    <v>       0.27877702       0.63938851       0.50416859 </v>
    <v>       0.30668129       0.61336258       0.50418405 </v>
    <v>       0.36061149       0.63938851       0.50416859 </v>
    <v>       0.38663742       0.69331871       0.50418405 </v>
    <v>       0.36061149       0.72122298       0.50416859 </v>
    <v>       0.30668129       0.69331871       0.50418405 </v>
    <v>       0.38925778       0.61074222       0.50426089 </v>
    <v>       0.36362899       0.55663781       0.50438275 </v>
    <v>       0.39032538       0.52980229       0.50480552 </v>
    <v>       0.44415118       0.55584882       0.50497891 </v>
    <v>       0.47019771       0.60967462       0.50480552 </v>
    <v>       0.44336219       0.63637101       0.50438275 </v>
    <v>       0.22148445       0.61074222       0.50426089 </v>
    <v>       0.19300882       0.55663781       0.50438275 </v>
    <v>       0.13947690       0.52980229       0.50480552 </v>
    <v>       0.11169763       0.55584882       0.50497891 </v>
    <v>       0.13947690       0.60967462       0.50480552 </v>
    <v>       0.19300882       0.63637101       0.50438275 </v>
    <v>       0.38925778       0.77851555       0.50426089 </v>
    <v>       0.36362899       0.80699118       0.50438275 </v>
    <v>       0.39032538       0.86052310       0.50480552 </v>
    <v>       0.44415118       0.88830237       0.50497891 </v>
    <v>       0.47019771       0.86052310       0.50480552 </v>
    <v>       0.44336219       0.80699118       0.50438275 </v>
    <v>       0.72121989       0.36060994       0.50480310 </v>
    <v>       0.69331811       0.38663623       0.50479216 </v>
    <v>       0.63939006       0.36060994       0.50480310 </v>
    <v>       0.61336377       0.30668189       0.50479216 </v>
    <v>       0.63939006       0.27878011       0.50480310 </v>
    <v>       0.69331811       0.30668189       0.50479216 </v>
    <v>       0.61074687       0.38925313       0.50472753 </v>
    <v>       0.63638070       0.44335712       0.50463232 </v>
    <v>       0.60968658       0.47019190       0.50421117 </v>
    <v>       0.55586401       0.44413599       0.50398693 </v>
    <v>       0.52980810       0.39031342       0.50421117 </v>
    <v>       0.55664288       0.36361930       0.50463232 </v>
    <v>       0.77850627       0.38925313       0.50472753 </v>
    <v>       0.80697642       0.44335712       0.50463232 </v>
    <v>       0.86050531       0.47019190       0.50421117 </v>
    <v>       0.88827199       0.44413599       0.50398693 </v>
    <v>       0.86050531       0.39031342       0.50421117 </v>
    <v>       0.80697642       0.36361930       0.50463232 </v>
    <v>       0.61074687       0.22149373       0.50472753 </v>
    <v>       0.63638070       0.19302358       0.50463232 </v>
    <v>       0.60968658       0.13949469       0.50421117 </v>
    <v>       0.55586401       0.11172801       0.50398693 </v>
    <v>       0.52980810       0.13949469       0.50421117 </v>
    <v>       0.55664288       0.19302358       0.50463232 </v>
    <v>       0.51353989       0.48646011       0.56402588 </v>
    <v>       0.48667671       0.51332329       0.56525448 </v>
    <v>       0.47274788       0.52725212       0.50505301 </v>
    <v>       0.51353989       0.02707978       0.56402588 </v>
    <v>       0.48667671       0.97335341       0.56525448 </v>
    <v>       0.47274788       0.94549576       0.50505301 </v>
    <v>       0.97292022       0.48646011       0.56402588 </v>
    <v>       0.48648728       0.51351272       0.44487372 </v>
    <v>       0.51335472       0.48664528       0.44362746 </v>
    <v>       0.52727481       0.47272519       0.50384827 </v>
    <v>       0.48648728       0.97297455       0.44487372 </v>
    <v>       0.51335472       0.02670944       0.44362746 </v>
    <v>       0.52727481       0.05454962       0.50384827 </v>
    <v>       0.97329056       0.48664528       0.44362746 </v>
    <v>       0.94545038       0.47272519       0.50384827 </v>
   </varray>
  </structure>
  <varray name="forces" >
   <v>      -0.00715820      -0.00413279       0.00119738 </v>
   <v>       0.00076772       0.00044324       0.00062497 </v>
   <v>       0.00082978       0.00108798       0.00262336 </v>
   <v>       0.00379594      -0.00007891       0.00129891 </v>
   <v>       0.00135711       0.00017462       0.00262336 </v>
   <v>       0.00182964       0.00332684       0.00129891 </v>
   <v>      -0.00196631      -0.00324793       0.00129891 </v>
   <v>       0.00052733      -0.00126260       0.00262336 </v>
   <v>       0.00196631      -0.00324793       0.00129891 </v>
   <v>      -0.00052733      -0.00126260       0.00262336 </v>
   <v>      -0.00182964       0.00332684       0.00129891 </v>
   <v>      -0.00135711       0.00017462       0.00262336 </v>
   <v>      -0.00082978       0.00108798       0.00262336 </v>
   <v>      -0.00379594      -0.00007891       0.00129891 </v>
   <v>      -0.00000000       0.00341304      -0.00106577 </v>
   <v>       0.00295578      -0.00170652      -0.00106577 </v>
   <v>      -0.00295578      -0.00170652      -0.00106577 </v>
   <v>      -0.00127787      -0.00058672      -0.00203963 </v>
   <v>      -0.00395726      -0.00011214       0.00050556 </v>
   <v>      -0.00114704      -0.00081331      -0.00203963 </v>
   <v>      -0.00207574      -0.00337101       0.00050556 </v>
   <v>       0.00188151       0.00348315       0.00050556 </v>
   <v>       0.00013082       0.00140002      -0.00203963 </v>
   <v>      -0.00188151       0.00348315       0.00050556 </v>
   <v>      -0.00013082       0.00140002      -0.00203963 </v>
   <v>       0.00207574      -0.00337101       0.00050556 </v>
   <v>       0.00114704      -0.00081331      -0.00203963 </v>
   <v>       0.00127787      -0.00058672      -0.00203963 </v>
   <v>       0.00395726      -0.00011214       0.00050556 </v>
   <v>       0.00000000      -0.00297150       0.00230455 </v>
   <v>      -0.00257340       0.00148575       0.00230455 </v>
   <v>       0.00257340       0.00148575       0.00230455 </v>
   <v>       0.00124877      -0.00072098      -0.00322721 </v>
   <v>       0.00715820      -0.00413279       0.00119738 </v>
   <v>      -0.00000000       0.00144195      -0.00322721 </v>
   <v>      -0.00000000       0.00826558       0.00119738 </v>
   <v>      -0.00124877      -0.00072098      -0.00322721 </v>
   <v>      -0.00076772       0.00044324       0.00062497 </v>
   <v>      -0.00748734       0.00432282      -0.00154452 </v>
   <v>       0.00000000      -0.00088648       0.00062497 </v>
   <v>       0.00000000      -0.00864564      -0.00154452 </v>
   <v>       0.00748734       0.00432282      -0.00154452 </v>
   <v>      -0.00677987      -0.00391436      -0.00408460 </v>
   <v>       0.00677987      -0.00391436      -0.00408460 </v>
   <v>      -0.00000000       0.00782872      -0.00408460 </v>
   <v>      -0.00785607       0.00453570       0.00010687 </v>
   <v>       0.00000000      -0.00907140       0.00010687 </v>
   <v>       0.00785607       0.00453570       0.00010687 </v>
   <v>       0.00224700       0.00129731       0.00101317 </v>
   <v>      -0.00579434      -0.00334537      -0.00412434 </v>
   <v>      -0.00490027      -0.00282917       0.00271852 </v>
   <v>      -0.00123491      -0.00071298      -0.00108528 </v>
   <v>      -0.00000000      -0.00050397      -0.00123094 </v>
   <v>       0.00123491      -0.00071298      -0.00108528 </v>
   <v>       0.00043645       0.00025198      -0.00123094 </v>
   <v>      -0.00000000       0.00142596      -0.00108528 </v>
   <v>      -0.00043645       0.00025198      -0.00123094 </v>
   <v>       0.00059471      -0.00034336       0.00193082 </v>
   <v>       0.00110293      -0.00417143       0.00167452 </v>
   <v>       0.00142566      -0.00543778       0.00160183 </v>
   <v>       0.00202382      -0.00116845      -0.00011282 </v>
   <v>       0.00542208       0.00148424       0.00160183 </v>
   <v>       0.00416403       0.00113055       0.00167452 </v>
   <v>      -0.00059471      -0.00034336       0.00193082 </v>
   <v>      -0.00110293      -0.00417143       0.00167452 </v>
   <v>      -0.00142566      -0.00543778       0.00160183 </v>
   <v>      -0.00202382      -0.00116845      -0.00011282 </v>
   <v>      -0.00542208       0.00148424       0.00160183 </v>
   <v>      -0.00416403       0.00113055       0.00167452 </v>
   <v>      -0.00000000       0.00068671       0.00193082 </v>
   <v>      -0.00306109       0.00304088       0.00167452 </v>
   <v>      -0.00399643       0.00395354       0.00160183 </v>
   <v>      -0.00000000       0.00233690      -0.00011282 </v>
   <v>       0.00399643       0.00395354       0.00160183 </v>
   <v>       0.00306109       0.00304088       0.00167452 </v>
   <v>       0.00140638       0.00081197       0.00234161 </v>
   <v>       0.00000000      -0.00032950       0.00241731 </v>
   <v>      -0.00140638       0.00081197       0.00234161 </v>
   <v>       0.00028536       0.00016475       0.00241731 </v>
   <v>       0.00000000      -0.00162394       0.00234161 </v>
   <v>      -0.00028536       0.00016475       0.00241731 </v>
   <v>      -0.00063709       0.00036783      -0.00027279 </v>
   <v>      -0.00042875       0.00365059       0.00003712 </v>
   <v>      -0.00091185       0.00484040      -0.00153873 </v>
   <v>      -0.00084683       0.00048892      -0.00070266 </v>
   <v>      -0.00464783      -0.00163051      -0.00153873 </v>
   <v>      -0.00337588      -0.00145399       0.00003712 </v>
   <v>       0.00063709       0.00036783      -0.00027279 </v>
   <v>       0.00042875       0.00365059       0.00003712 </v>
   <v>       0.00091185       0.00484040      -0.00153873 </v>
   <v>       0.00084683       0.00048892      -0.00070266 </v>
   <v>       0.00464783      -0.00163051      -0.00153873 </v>
   <v>       0.00337588      -0.00145399       0.00003712 </v>
   <v>       0.00000000      -0.00073565      -0.00027279 </v>
   <v>       0.00294713      -0.00219661       0.00003712 </v>
   <v>       0.00373598      -0.00320988      -0.00153873 </v>
   <v>       0.00000000      -0.00097784      -0.00070266 </v>
   <v>      -0.00373598      -0.00320988      -0.00153873 </v>
   <v>      -0.00294713      -0.00219661       0.00003712 </v>
   <v>      -0.00434224       0.00250700       0.00092559 </v>
   <v>      -0.00224700       0.00129731       0.00101317 </v>
   <v>       0.00490027      -0.00282917       0.00271852 </v>
   <v>       0.00000000      -0.00501399       0.00092559 </v>
   <v>       0.00000000      -0.00259462       0.00101317 </v>
   <v>      -0.00000000       0.00565835       0.00271852 </v>
   <v>       0.00434224       0.00250700       0.00092559 </v>
   <v>       0.00579434      -0.00334537      -0.00412434 </v>
   <v>       0.00181166      -0.00104596      -0.00151995 </v>
   <v>      -0.00459008       0.00265008      -0.00493578 </v>
   <v>      -0.00000000       0.00669073      -0.00412434 </v>
   <v>      -0.00000000       0.00209193      -0.00151995 </v>
   <v>       0.00000000      -0.00530016      -0.00493578 </v>
   <v>      -0.00181166      -0.00104596      -0.00151995 </v>
   <v>       0.00459008       0.00265008      -0.00493578 </v>
  </varray>
  <varray name="stress" >
   <v>       0.00788066      -0.00000000       0.00000000 </v>
   <v>      -0.00000000       0.00788066       0.00000000 </v>
   <v>       0.00000000      -0.00000000      -0.12718855 </v>
  </varray>
  <energy>
   <i name="e_fr_energy">   -790.32683526 </i>
   <i name="e_wo_entrp">   -790.32683526 </i>
   <i name="e_0_energy">     -0.00000000 </i>
  </energy>
  <time name="totalsc"> 4865.99 4922.05</time>
  <eigenvalues>
   <array>
    <dimension dim="1">band</dimension>
    <dimension dim="2">kpoint</dimension>
    <dimension dim="3">spin</dimension>
    <field>eigene</field>
    <field>occ</field>
    <set>
     <set comment="spin 1">
      <set comment="kpoint 1">
       <r>  -26.1923    1.0000 </r>
       <r>  -26.1923    1.0000 </r>
       <r>  -26.1923    1.0000 </r>
       <r>  -26.1650    1.0000 </r>
       <r>  -26.1650    1.0000 </r>
       <r>  -26.1650    1.0000 </r>
       <r>  -21.5221    1.0000 </r>
       <r>  -21.4887    1.0000 </r>
       <r>  -21.3328    1.0000 </r>
       <r>  -21.3324    1.0000 </r>
       <r>  -21.1416    1.0000 </r>
       <r>  -21.1267    1.0000 </r>
       <r>  -21.1262    1.0000 </r>
       <r>  -20.7445    1.0000 </r>
       <r>  -20.7317    1.0000 </r>
       <r>  -20.7313    1.0000 </r>
       <r>  -20.4092    1.0000 </r>
       <r>  -19.6398    1.0000 </r>
       <r>  -19.6395    1.0000 </r>
       <r>  -19.1760    1.0000 </r>
       <r>  -19.1515    1.0000 </r>
       <r>  -19.1511    1.0000 </r>
       <r>  -18.4590    1.0000 </r>
       <r>  -18.4589    1.0000 </r>
       <r>  -18.2232    1.0000 </r>
       <r>  -18.1297    1.0000 </r>
       <r>  -18.1292    1.0000 </r>
       <r>  -18.0916    1.0000 </r>
       <r>  -18.0912    1.0000 </r>
       <r>  -18.0884    1.0000 </r>
       <r>  -18.0876    1.0000 </r>
       <r>  -17.8823    1.0000 </r>
       <r>  -17.8611    1.0000 </r>
       <r>  -17.8610    1.0000 </r>
       <r>  -17.5136    1.0000 </r>
       <r>  -17.5135    1.0000 </r>
       <r>  -17.3187    1.0000 </r>
       <r>  -16.9508    1.0000 </r>
       <r>  -16.9507    1.0000 </r>
       <r>  -15.7828    1.0000 </r>
       <r>  -15.7827    1.0000 </r>
       <r>  -15.6810    1.0000 </r>
       <r>  -15.4093    1.0000 </r>
       <r>  -15.4092    1.0000 </r>
       <r>  -15.2919    1.0000 </r>
       <r>  -15.2919    1.0000 </r>
       <r>  -15.2617    1.0000 </r>
       <r>  -14.6765    1.0000 </r>
       <r>  -14.6764    1.0000 </r>
       <r>  -14.6551    1.0000 </r>
       <r>  -14.6509    1.0000 </r>
       <r>  -14.5823    1.0000 </r>
       <r>  -14.3692    1.0000 </r>
       <r>  -14.3690    1.0000 </r>
       <r>  -14.0352    1.0000 </r>
       <r>  -14.0352    1.0000 </r>
       <r>  -13.8782    1.0000 </r>
       <r>  -13.5986    1.0000 </r>
       <r>  -13.5984    1.0000 </r>
       <r>  -13.5356    1.0000 </r>
       <r>  -13.5354    1.0000 </r>
       <r>  -13.4214    1.0000 </r>
       <r>  -13.3889    1.0000 </r>
       <r>  -13.3887    1.0000 </r>
       <r>  -13.1714    1.0000 </r>
       <r>  -13.0706    1.0000 </r>
       <r>  -13.0704    1.0000 </r>
       <r>  -12.9652    1.0000 </r>
       <r>  -12.6710    1.0000 </r>
       <r>  -12.0890    1.0000 </r>
       <r>  -12.0887    1.0000 </r>
       <r>  -11.6603    1.0000 </r>
       <r>  -11.6496    1.0000 </r>
       <r>  -11.5948    1.0000 </r>
       <r>  -11.5244    1.0000 </r>
       <r>  -11.5188    1.0000 </r>
       <r>  -11.5186    1.0000 </r>
       <r>  -11.4935    1.0000 </r>
       <r>  -11.4884    1.0000 </r>
       <r>  -11.4882    1.0000 </r>
       <r>  -11.1215    1.0000 </r>
       <r>  -10.8628    1.0000 </r>
       <r>  -10.8626    1.0000 </r>
       <r>  -10.8228    1.0000 </r>
       <r>  -10.7662    1.0000 </r>
       <r>  -10.7661    1.0000 </r>
       <r>  -10.5577    1.0000 </r>
       <r>  -10.5575    1.0000 </r>
       <r>  -10.5069    1.0000 </r>
       <r>  -10.5068    1.0000 </r>
       <r>  -10.3026    1.0000 </r>
       <r>  -10.3026    1.0000 </r>
       <r>  -10.2448    1.0000 </r>
       <r>  -10.1743    1.0000 </r>
       <r>  -10.1743    1.0000 </r>
       <r>  -10.0618    1.0000 </r>
       <r>  -10.0616    1.0000 </r>
       <r>  -10.0348    1.0000 </r>
       <r>   -9.9206    1.0000 </r>
       <r>   -9.8587    1.0000 </r>
       <r>   -9.8546    1.0000 </r>
       <r>   -9.7989    1.0000 </r>
       <r>   -9.7673    1.0000 </r>
       <r>   -9.7671    1.0000 </r>
       <r>   -9.7503    1.0000 </r>
       <r>   -9.7503    1.0000 </r>
       <r>   -9.7087    1.0000 </r>
       <r>   -9.5676    1.0000 </r>
       <r>   -9.5674    1.0000 </r>
       <r>   -9.5304    1.0000 </r>
       <r>   -9.4825    1.0000 </r>
       <r>   -9.4594    1.0000 </r>
       <r>   -9.2655    1.0000 </r>
       <r>   -9.2652    1.0000 </r>
       <r>   -9.1544    1.0000 </r>
       <r>   -9.0443    1.0000 </r>
       <r>   -9.0441    1.0000 </r>
       <r>   -9.0343    1.0000 </r>
       <r>   -9.0313    1.0000 </r>
       <r>   -8.8712    1.0000 </r>
       <r>   -8.8707    1.0000 </r>
       <r>   -8.8525    1.0000 </r>
       <r>   -8.8525    1.0000 </r>
       <r>   -8.6907    1.0000 </r>
       <r>   -8.6902    1.0000 </r>
       <r>   -8.6282    1.0000 </r>
       <r>   -8.5886    1.0000 </r>
       <r>   -8.5884    1.0000 </r>
       <r>   -8.5185    1.0000 </r>
       <r>   -8.5185    1.0000 </r>
       <r>   -8.3736    1.0000 </r>
       <r>   -8.3256    1.0000 </r>
       <r>   -8.3256    1.0000 </r>
       <r>   -8.1913    1.0000 </r>
       <r>   -8.1502    1.0000 </r>
       <r>   -8.0279    1.0000 </r>
       <r>   -8.0277    1.0000 </r>
       <r>   -7.8095    1.0000 </r>
       <r>   -7.7960    1.0000 </r>
       <r>   -7.5679    1.0000 </r>
       <r>   -7.5584    1.0000 </r>
       <r>   -7.5583    1.0000 </r>
       <r>   -7.4600    1.0000 </r>
       <r>   -7.4597    1.0000 </r>
       <r>   -7.4185    1.0000 </r>
       <r>   -7.4185    1.0000 </r>
       <r>   -7.0077    1.0000 </r>
       <r>   -6.9960    1.0000 </r>
       <r>   -6.9958    1.0000 </r>
       <r>   -6.9131    1.0000 </r>
       <r>   -6.9127    1.0000 </r>
       <r>   -6.9064    1.0000 </r>
       <r>   -6.9061    1.0000 </r>
       <r>   -6.0253    1.0000 </r>
       <r>   -6.0249    1.0000 </r>
       <r>   -6.0177    1.0000 </r>
       <r>   -5.9930    1.0000 </r>
       <r>   -5.9925    1.0000 </r>
       <r>   -5.9803    1.0000 </r>
       <r>   -5.9118    1.0000 </r>
       <r>   -5.9117    1.0000 </r>
       <r>   -5.9090    1.0000 </r>
       <r>   -5.7048    1.0000 </r>
       <r>   -5.6922    1.0000 </r>
       <r>   -5.0740    1.0000 </r>
       <r>   -5.0738    1.0000 </r>
       <r>   -5.0637    1.0000 </r>
       <r>   -5.0635    1.0000 </r>
       <r>   -4.6625    1.0000 </r>
       <r>   -4.6624    1.0000 </r>
       <r>   -4.6622    1.0000 </r>
       <r>   -1.8562    0.0000 </r>
       <r>   -1.8561    0.0000 </r>
       <r>   -1.8458    0.0000 </r>
       <r>   -1.8457    0.0000 </r>
       <r>   -1.1936    0.0000 </r>
       <r>   -1.1722    0.0000 </r>
       <r>   -1.1721    0.0000 </r>
       <r>   -1.1401    0.0000 </r>
       <r>   -1.1109    0.0000 </r>
       <r>   -0.8559    0.0000 </r>
       <r>   -0.8268    0.0000 </r>
       <r>   -0.8264    0.0000 </r>
       <r>   -0.7641    0.0000 </r>
       <r>   -0.7532    0.0000 </r>
       <r>   -0.7529    0.0000 </r>
       <r>   -0.4178    0.0000 </r>
       <r>   -0.3371    0.0000 </r>
       <r>   -0.3301    0.0000 </r>
       <r>   -0.3298    0.0000 </r>
       <r>   -0.3283    0.0000 </r>
       <r>   -0.3280    0.0000 </r>
       <r>   -0.1860    0.0000 </r>
       <r>   -0.1858    0.0000 </r>
       <r>   -0.1837    0.0000 </r>
       <r>   -0.1754    0.0000 </r>
       <r>   -0.0021    0.0000 </r>
       <r>    0.0227    0.0000 </r>
       <r>    0.0233    0.0000 </r>
       <r>    0.1290    0.0000 </r>
       <r>    0.1293    0.0000 </r>
       <r>    0.3698    0.0000 </r>
       <r>    0.3701    0.0000 </r>
       <r>    0.3826    0.0000 </r>
       <r>    0.3828    0.0000 </r>
       <r>    0.3886    0.0000 </r>
       <r>    0.4444    0.0000 </r>
       <r>    0.4933    0.0000 </r>
       <r>    0.4938    0.0000 </r>
       <r>    0.4940    0.0000 </r>
       <r>    0.4941    0.0000 </r>
       <r>    0.4992    0.0000 </r>
       <r>    0.5361    0.0000 </r>
       <r>    0.5464    0.0000 </r>
       <r>    0.6578    0.0000 </r>
       <r>    0.6584    0.0000 </r>
       <r>    0.6957    0.0000 </r>
       <r>    0.6993    0.0000 </r>
       <r>    0.7000    0.0000 </r>
       <r>    0.7466    0.0000 </r>
       <r>    0.7837    0.0000 </r>
       <r>    0.7862    0.0000 </r>
       <r>    0.8440    0.0000 </r>
       <r>    0.8447    0.0000 </r>
       <r>    0.8462    0.0000 </r>
       <r>    0.8541    0.0000 </r>
       <r>    0.8746    0.0000 </r>
       <r>    0.9216    0.0000 </r>
       <r>    0.9389    0.0000 </r>
       <r>    0.9396    0.0000 </r>
       <r>    0.9682    0.0000 </r>
       <r>    0.9706    0.0000 </r>
       <r>    1.0015    0.0000 </r>
       <r>    1.0036    0.0000 </r>
       <r>    1.0041    0.0000 </r>
       <r>    1.0463    0.0000 </r>
       <r>    1.0744    0.0000 </r>
       <r>    1.0747    0.0000 </r>
       <r>    1.1140    0.0000 </r>
       <r>    1.1168    0.0000 </r>
      </set>
      <set comment="kpoint 2">
       <r>  -26.1923    1.0000 </r>
       <r>  -26.1923    1.0000 </r>
       <r>  -26.1923    1.0000 </r>
       <r>  -26.1650    1.0000 </r>
       <r>  -26.1650    1.0000 </r>
       <r>  -26.1650    1.0000 </r>
       <r>  -21.5221    1.0000 </r>
       <r>  -21.4888    1.0000 </r>
       <r>  -21.3326    1.0000 </r>
       <r>  -21.3324    1.0000 </r>
       <r>  -21.1451    1.0000 </r>
       <r>  -21.1263    1.0000 </r>
       <r>  -21.1230    1.0000 </r>
       <r>  -20.7508    1.0000 </r>
       <r>  -20.7314    1.0000 </r>
       <r>  -20.7253    1.0000 </r>
       <r>  -20.4095    1.0000 </r>
       <r>  -19.6396    1.0000 </r>
       <r>  -19.6392    1.0000 </r>
       <r>  -19.1856    1.0000 </r>
       <r>  -19.1512    1.0000 </r>
       <r>  -19.1417    1.0000 </r>
       <r>  -18.4607    1.0000 </r>
       <r>  -18.4589    1.0000 </r>
       <r>  -18.2217    1.0000 </r>
       <r>  -18.1297    1.0000 </r>
       <r>  -18.1292    1.0000 </r>
       <r>  -18.0916    1.0000 </r>
       <r>  -18.0910    1.0000 </r>
       <r>  -18.0884    1.0000 </r>
       <r>  -18.0876    1.0000 </r>
       <r>  -17.8823    1.0000 </r>
       <r>  -17.8611    1.0000 </r>
       <r>  -17.8610    1.0000 </r>
       <r>  -17.5155    1.0000 </r>
       <r>  -17.5136    1.0000 </r>
       <r>  -17.3170    1.0000 </r>
       <r>  -16.9511    1.0000 </r>
       <r>  -16.9507    1.0000 </r>
       <r>  -15.7828    1.0000 </r>
       <r>  -15.7827    1.0000 </r>
       <r>  -15.6812    1.0000 </r>
       <r>  -15.4093    1.0000 </r>
       <r>  -15.4092    1.0000 </r>
       <r>  -15.2949    1.0000 </r>
       <r>  -15.2919    1.0000 </r>
       <r>  -15.2581    1.0000 </r>
       <r>  -14.6790    1.0000 </r>
       <r>  -14.6765    1.0000 </r>
       <r>  -14.6551    1.0000 </r>
       <r>  -14.6509    1.0000 </r>
       <r>  -14.5801    1.0000 </r>
       <r>  -14.3692    1.0000 </r>
       <r>  -14.3691    1.0000 </r>
       <r>  -14.0352    1.0000 </r>
       <r>  -14.0350    1.0000 </r>
       <r>  -13.8784    1.0000 </r>
       <r>  -13.5985    1.0000 </r>
       <r>  -13.5984    1.0000 </r>
       <r>  -13.5357    1.0000 </r>
       <r>  -13.5354    1.0000 </r>
       <r>  -13.4213    1.0000 </r>
       <r>  -13.3890    1.0000 </r>
       <r>  -13.3887    1.0000 </r>
       <r>  -13.1713    1.0000 </r>
       <r>  -13.0710    1.0000 </r>
       <r>  -13.0704    1.0000 </r>
       <r>  -12.9646    1.0000 </r>
       <r>  -12.6716    1.0000 </r>
       <r>  -12.0888    1.0000 </r>
       <r>  -12.0882    1.0000 </r>
       <r>  -11.6604    1.0000 </r>
       <r>  -11.6496    1.0000 </r>
       <r>  -11.5959    1.0000 </r>
       <r>  -11.5244    1.0000 </r>
       <r>  -11.5187    1.0000 </r>
       <r>  -11.5183    1.0000 </r>
       <r>  -11.4935    1.0000 </r>
       <r>  -11.4884    1.0000 </r>
       <r>  -11.4882    1.0000 </r>
       <r>  -11.1209    1.0000 </r>
       <r>  -10.8629    1.0000 </r>
       <r>  -10.8625    1.0000 </r>
       <r>  -10.8229    1.0000 </r>
       <r>  -10.7664    1.0000 </r>
       <r>  -10.7662    1.0000 </r>
       <r>  -10.5576    1.0000 </r>
       <r>  -10.5575    1.0000 </r>
       <r>  -10.5070    1.0000 </r>
       <r>  -10.5069    1.0000 </r>
       <r>  -10.3026    1.0000 </r>
       <r>  -10.3025    1.0000 </r>
       <r>  -10.2450    1.0000 </r>
       <r>  -10.1743    1.0000 </r>
       <r>  -10.1740    1.0000 </r>
       <r>  -10.0619    1.0000 </r>
       <r>  -10.0617    1.0000 </r>
       <r>  -10.0345    1.0000 </r>
       <r>   -9.9205    1.0000 </r>
       <r>   -9.8588    1.0000 </r>
       <r>   -9.8549    1.0000 </r>
       <r>   -9.7989    1.0000 </r>
       <r>   -9.7683    1.0000 </r>
       <r>   -9.7680    1.0000 </r>
       <r>   -9.7499    1.0000 </r>
       <r>   -9.7492    1.0000 </r>
       <r>   -9.7080    1.0000 </r>
       <r>   -9.5677    1.0000 </r>
       <r>   -9.5675    1.0000 </r>
       <r>   -9.5303    1.0000 </r>
       <r>   -9.4826    1.0000 </r>
       <r>   -9.4596    1.0000 </r>
       <r>   -9.2654    1.0000 </r>
       <r>   -9.2651    1.0000 </r>
       <r>   -9.1545    1.0000 </r>
       <r>   -9.0442    1.0000 </r>
       <r>   -9.0441    1.0000 </r>
       <r>   -9.0341    1.0000 </r>
       <r>   -9.0313    1.0000 </r>
       <r>   -8.8710    1.0000 </r>
       <r>   -8.8706    1.0000 </r>
       <r>   -8.8528    1.0000 </r>
       <r>   -8.8525    1.0000 </r>
       <r>   -8.6910    1.0000 </r>
       <r>   -8.6903    1.0000 </r>
       <r>   -8.6280    1.0000 </r>
       <r>   -8.5886    1.0000 </r>
       <r>   -8.5885    1.0000 </r>
       <r>   -8.5185    1.0000 </r>
       <r>   -8.5185    1.0000 </r>
       <r>   -8.3755    1.0000 </r>
       <r>   -8.3256    1.0000 </r>
       <r>   -8.3234    1.0000 </r>
       <r>   -8.1912    1.0000 </r>
       <r>   -8.1503    1.0000 </r>
       <r>   -8.0282    1.0000 </r>
       <r>   -8.0277    1.0000 </r>
       <r>   -7.8095    1.0000 </r>
       <r>   -7.7961    1.0000 </r>
       <r>   -7.5679    1.0000 </r>
       <r>   -7.5584    1.0000 </r>
       <r>   -7.5583    1.0000 </r>
       <r>   -7.4600    1.0000 </r>
       <r>   -7.4597    1.0000 </r>
       <r>   -7.4185    1.0000 </r>
       <r>   -7.4185    1.0000 </r>
       <r>   -7.0076    1.0000 </r>
       <r>   -6.9960    1.0000 </r>
       <r>   -6.9958    1.0000 </r>
       <r>   -6.9131    1.0000 </r>
       <r>   -6.9127    1.0000 </r>
       <r>   -6.9064    1.0000 </r>
       <r>   -6.9061    1.0000 </r>
       <r>   -6.0253    1.0000 </r>
       <r>   -6.0249    1.0000 </r>
       <r>   -6.0178    1.0000 </r>
       <r>   -5.9930    1.0000 </r>
       <r>   -5.9925    1.0000 </r>
       <r>   -5.9804    1.0000 </r>
       <r>   -5.9118    1.0000 </r>
       <r>   -5.9117    1.0000 </r>
       <r>   -5.9090    1.0000 </r>
       <r>   -5.7047    1.0000 </r>
       <r>   -5.6922    1.0000 </r>
       <r>   -5.0740    1.0000 </r>
       <r>   -5.0738    1.0000 </r>
       <r>   -5.0637    1.0000 </r>
       <r>   -5.0635    1.0000 </r>
       <r>   -4.6625    1.0000 </r>
       <r>   -4.6624    1.0000 </r>
       <r>   -4.6622    1.0000 </r>
       <r>   -1.8562    0.0000 </r>
       <r>   -1.8561    0.0000 </r>
       <r>   -1.8458    0.0000 </r>
       <r>   -1.8457    0.0000 </r>
       <r>   -1.1936    0.0000 </r>
       <r>   -1.1723    0.0000 </r>
       <r>   -1.1721    0.0000 </r>
       <r>   -1.1401    0.0000 </r>
       <r>   -1.1109    0.0000 </r>
       <r>   -0.8559    0.0000 </r>
       <r>   -0.8268    0.0000 </r>
       <r>   -0.8264    0.0000 </r>
       <r>   -0.7641    0.0000 </r>
       <r>   -0.7532    0.0000 </r>
       <r>   -0.7529    0.0000 </r>
       <r>   -0.4177    0.0000 </r>
       <r>   -0.3371    0.0000 </r>
       <r>   -0.3303    0.0000 </r>
       <r>   -0.3299    0.0000 </r>
       <r>   -0.3284    0.0000 </r>
       <r>   -0.3280    0.0000 </r>
[...]
       <r>   -22.1404     0.0000    12.0000 </r>
       <r>   -22.0400     0.0000    12.0000 </r>
       <r>   -21.9396     0.0000    12.0000 </r>
       <r>   -21.8392     0.0000    12.0000 </r>
       <r>   -21.7388     0.0000    12.0000 </r>
       <r>   -21.6384     0.0000    12.0000 </r>
       <r>   -21.5380     0.0609    12.0061 </r>
       <r>   -21.4377    32.5368    16.0000 </r>
       <r>   -21.3373     5.8216    16.5844 </r>
       <r>   -21.2369    23.7095    21.0136 </r>
       <r>   -21.1365     8.6507    22.1351 </r>
       <r>   -21.0361     5.8413    24.7531 </r>
       <r>   -20.9357    12.9691    26.2353 </r>
       <r>   -20.8353     8.6874    27.4056 </r>
       <r>   -20.7349    11.3401    28.6385 </r>
       <r>   -20.6346     4.5625    30.6247 </r>
       <r>   -20.5342    10.8390    31.8215 </r>
       <r>   -20.4338    12.5144    33.4230 </r>
       <r>   -20.3334     2.6547    34.0000 </r>
       <r>   -20.2330     0.0000    34.0000 </r>
       <r>   -20.1326     0.0000    34.0000 </r>
       <r>   -20.0322     0.0000    34.0000 </r>
       <r>   -19.9319     0.0000    34.0000 </r>
       <r>   -19.8315     0.0000    34.0000 </r>
       <r>   -19.7311     0.0000    34.0000 </r>
       <r>   -19.6307    20.7861    36.0867 </r>
       <r>   -19.5303     9.2068    37.4909 </r>
       <r>   -19.4299     9.7231    38.7428 </r>
       <r>   -19.3295     3.6506    39.3665 </r>
       <r>   -19.2291     3.0844    39.7430 </r>
       <r>   -19.1288    23.3270    42.1418 </r>
       <r>   -19.0284     2.8636    42.4875 </r>
       <r>   -18.9280     2.6142    42.8291 </r>
       <r>   -18.8276     7.1540    43.6182 </r>
       <r>   -18.7272     5.8887    44.3579 </r>
       <r>   -18.6268     6.6064    45.1633 </r>
       <r>   -18.5264     2.9946    45.5340 </r>
       <r>   -18.4260    23.5754    48.0000 </r>
       <r>   -18.3257     0.0000    48.0000 </r>
       <r>   -18.2253     0.5384    48.0541 </r>
       <r>   -18.1249    47.6594    53.0511 </r>
       <r>   -18.0245    67.2272    60.7487 </r>
       <r>   -17.9241     9.3475    61.8050 </r>
       <r>   -17.8237    54.9873    67.7202 </r>
       <r>   -17.7233     9.0016    68.9703 </r>
       <r>   -17.6230     3.1132    69.3792 </r>
       <r>   -17.5226     6.1111    70.0469 </r>
       <r>   -17.4222     0.0000    72.0000 </r>
       <r>   -17.3218     0.4229    72.0425 </r>
       <r>   -17.2214     3.9565    72.6306 </r>
       <r>   -17.1210     7.0956    73.4456 </r>
       <r>   -17.0206    12.6551    74.9705 </r>
       <r>   -16.9202    27.8918    78.0000 </r>
       <r>   -16.8199     0.0000    78.0000 </r>
       <r>   -16.7195     0.0000    78.0000 </r>
       <r>   -16.6191     0.0000    78.0000 </r>
       <r>   -16.5187     0.0000    78.0000 </r>
       <r>   -16.4183     0.0000    78.0000 </r>
       <r>   -16.3179     0.0000    78.0000 </r>
       <r>   -16.2175     0.0000    78.0000 </r>
       <r>   -16.1171     0.0000    78.0000 </r>
       <r>   -16.0168     0.0000    78.0000 </r>
       <r>   -15.9164     0.0000    78.0000 </r>
       <r>   -15.8160     0.0000    78.0000 </r>
       <r>   -15.7156    49.8141    83.0007 </r>
       <r>   -15.6152     5.6440    84.0000 </r>
       <r>   -15.5148     0.0000    84.0000 </r>
       <r>   -15.4144     6.2468    84.6271 </r>
       <r>   -15.3141    19.0027    89.7412 </r>
       <r>   -15.2137    24.1131    92.3555 </r>
       <r>   -15.1133     3.7434    92.8092 </r>
       <r>   -15.0129     8.1313    93.7163 </r>
       <r>   -14.9125     7.2012    94.6229 </r>
       <r>   -14.8121     3.2874    95.2967 </r>
       <r>   -14.7117     3.3667    95.7046 </r>
       <r>   -14.6113    61.7608   102.0000 </r>
       <r>   -14.5110     5.4627   102.5484 </r>
       <r>   -14.4106    14.7009   104.1425 </r>
       <r>   -14.3102    29.5517   108.0000 </r>
       <r>   -14.2098     0.0000   108.0000 </r>
       <r>   -14.1094     0.0000   108.0000 </r>
       <r>   -14.0090    27.4461   110.7552 </r>
       <r>   -13.9086    21.8092   113.2563 </r>
       <r>   -13.8082     4.3156   114.0000 </r>
       <r>   -13.7079     0.0000   114.0000 </r>
       <r>   -13.6075     1.9863   114.1994 </r>
       <r>   -13.5071    52.7943   122.0000 </r>
       <r>   -13.4067    17.1522   123.7219 </r>
       <r>   -13.3063     0.0000   128.0000 </r>
       <r>   -13.2059     0.0000   128.0000 </r>
       <r>   -13.1055    31.9361   131.2060 </r>
       <r>   -13.0051    24.2391   134.0000 </r>
       <r>   -12.9048     7.6949   134.7725 </r>
       <r>   -12.8044    13.2892   136.2674 </r>
       <r>   -12.7040     8.6881   137.4723 </r>
       <r>   -12.6036     3.3199   138.0000 </r>
       <r>   -12.5032     0.0000   138.0000 </r>
       <r>   -12.4028     0.0000   138.0000 </r>
       <r>   -12.3024     0.0000   138.0000 </r>
       <r>   -12.2021     0.0000   138.0000 </r>
       <r>   -12.1017     0.6729   138.0675 </r>
       <r>   -12.0013     5.2138   140.7568 </r>
       <r>   -11.9009     8.0454   141.6743 </r>
       <r>   -11.8005     7.7909   142.6155 </r>
       <r>   -11.7001     3.8979   143.3580 </r>
       <r>   -11.5997    43.3564   147.8524 </r>
       <r>   -11.4993    63.4490   154.3695 </r>
       <r>   -11.3990     0.0000   160.0000 </r>
       <r>   -11.2986     0.0000   160.0000 </r>
       <r>   -11.1982     0.0000   160.0000 </r>
       <r>   -11.0978     4.2234   160.4240 </r>
       <r>   -10.9974     9.5707   161.5275 </r>
       <r>   -10.8970    13.8913   163.1946 </r>
       <r>   -10.7966    54.2610   168.9139 </r>
       <r>   -10.6962    14.2733   172.0000 </r>
       <r>   -10.5959     0.0000   172.0000 </r>
       <r>   -10.4955    79.1089   179.9415 </r>
       <r>   -10.3951     0.0000   180.0000 </r>
       <r>   -10.2947    25.5919   182.5691 </r>
       <r>   -10.1943    15.0127   186.0076 </r>
       <r>   -10.0939    25.7667   190.7201 </r>
       <r>    -9.9935    35.0273   194.8831 </r>
       <r>    -9.8932    36.3405   199.0150 </r>
       <r>    -9.7928    52.6180   205.9491 </r>
       <r>    -9.6924    44.6846   212.0860 </r>
       <r>    -9.5920    25.6402   215.2073 </r>
       <r>    -9.4916    64.0301   222.1280 </r>
       <r>    -9.3912     5.6441   224.0000 </r>
       <r>    -9.2908     0.0033   224.0003 </r>
       <r>    -9.1904    45.9297   228.6111 </r>
       <r>    -9.0901     7.3044   230.0000 </r>
       <r>    -8.9897    69.1445   236.9412 </r>
       <r>    -8.8893    16.9317   239.1998 </r>
       <r>    -8.7889    42.1922   245.8691 </r>
       <r>    -8.6885    27.6579   249.1099 </r>
       <r>    -8.5881    45.3382   254.5514 </r>
       <r>    -8.4877    41.4194   260.1580 </r>
       <r>    -8.3873     8.1598   261.7859 </r>
       <r>    -8.2870    23.6159   264.3707 </r>
       <r>    -8.1866    12.6673   265.7716 </r>
       <r>    -8.0862    33.6527   271.0123 </r>
       <r>    -7.9858    27.5596   274.0000 </r>
       <r>    -7.8854     0.0000   274.0000 </r>
       <r>    -7.7850    39.2710   277.9423 </r>
       <r>    -7.6846     0.0000   278.0000 </r>
       <r>    -7.5843     0.0816   278.0082 </r>
       <r>    -7.4839    50.1235   284.0004 </r>
       <r>    -7.3835    79.6873   292.0000 </r>
       <r>    -7.2831     0.0000   292.0000 </r>
       <r>    -7.1827     0.0000   292.0000 </r>
       <r>    -7.0823     0.0000   292.0000 </r>
       <r>    -6.9819    59.0504   297.9279 </r>
       <r>    -6.8815    79.6839   305.9992 </r>
       <r>    -6.7812     0.0000   306.0000 </r>
       <r>    -6.6808     0.0000   306.0000 </r>
       <r>    -6.5804     0.0000   306.0000 </r>
       <r>    -6.4800     0.0000   306.0000 </r>
       <r>    -6.3796     0.0000   306.0000 </r>
       <r>    -6.2792     0.0000   306.0000 </r>
       <r>    -6.1788     0.0000   306.0000 </r>
       <r>    -6.0784     0.0000   306.0000 </r>
       <r>    -5.9781   112.9972   317.3434 </r>
       <r>    -5.8777    59.7686   324.0000 </r>
       <r>    -5.7773     0.0000   324.0000 </r>
       <r>    -5.6769    39.7148   327.9869 </r>
       <r>    -5.5765     0.0000   328.0000 </r>
       <r>    -5.4761     0.0000   328.0000 </r>
       <r>    -5.3757     0.0000   328.0000 </r>
       <r>    -5.2754     0.0000   328.0000 </r>
       <r>    -5.1750     0.0000   328.0000 </r>
       <r>    -5.0746    19.3921   329.9467 </r>
       <r>    -4.9742     0.0000   336.0000 </r>
       <r>    -4.8738     0.0000   336.0000 </r>
       <r>    -4.7734     0.0000   336.0000 </r>
       <r>    -4.6730     3.9405   336.3956 </r>
       <r>    -4.5726     0.0000   342.0000 </r>
       <r>    -4.4723     0.0000   342.0000 </r>
       <r>    -4.3719     0.0000   342.0000 </r>
       <r>    -4.2715     0.0000   342.0000 </r>
       <r>    -4.1711     0.0000   342.0000 </r>
       <r>    -4.0707     0.0000   342.0000 </r>
       <r>    -3.9703     0.0000   342.0000 </r>
       <r>    -3.8699     0.0000   342.0000 </r>
       <r>    -3.7695     0.0000   342.0000 </r>
       <r>    -3.6692     0.0000   342.0000 </r>
       <r>    -3.5688     0.0000   342.0000 </r>
       <r>    -3.4684     0.0000   342.0000 </r>
       <r>    -3.3680     0.0000   342.0000 </r>
       <r>    -3.2676     0.0000   342.0000 </r>
       <r>    -3.1672     0.0000   342.0000 </r>
       <r>    -3.0668     0.0000   342.0000 </r>
       <r>    -2.9665     0.0000   342.0000 </r>
       <r>    -2.8661     0.0000   342.0000 </r>
       <r>    -2.7657     0.0000   342.0000 </r>
       <r>    -2.6653     0.0000   342.0000 </r>
       <r>    -2.5649     0.0000   342.0000 </r>
       <r>    -2.4645     0.0000   342.0000 </r>
       <r>    -2.3641     0.0000   342.0000 </r>
       <r>    -2.2637     0.0000   342.0000 </r>
       <r>    -2.1634     0.0000   342.0000 </r>
       <r>    -2.0630     0.0000   342.0000 </r>
       <r>    -1.9626     0.0000   342.0000 </r>
       <r>    -1.8622     9.7443   342.9782 </r>
       <r>    -1.7618     5.6360   350.0000 </r>
       <r>    -1.6614     0.0000   350.0000 </r>
       <r>    -1.5610     0.0000   350.0000 </r>
       <r>    -1.4606     0.0000   350.0000 </r>
       <r>    -1.3603     0.0000   350.0000 </r>
       <r>    -1.2599     0.0000   350.0000 </r>
       <r>    -1.1595    58.9859   355.9214 </r>
       <r>    -1.0591    36.5212   360.0000 </r>
       <r>    -0.9587     0.0000   360.0000 </r>
       <r>    -0.8583     2.6467   360.2657 </r>
       <r>    -0.7579    63.0854   368.7002 </r>
       <r>    -0.6576     0.0000   372.0000 </r>
       <r>    -0.5572     0.0000   372.0000 </r>
       <r>    -0.4568     0.0000   372.0000 </r>
       <r>    -0.3564    32.2380   375.2363 </r>
       <r>    -0.2560    79.6752   384.0000 </r>
       <r>    -0.1556    66.1534   390.6409 </r>
       <r>    -0.0552    21.3483   393.0432 </r>
       <r>     0.0452    22.1805   395.5600 </r>
       <r>     0.1455    44.1110   401.9950 </r>
       <r>     0.2459     0.0000   402.0000 </r>
       <r>     0.3463     0.0115   402.0011 </r>
       <r>     0.4467   129.5560   415.0069 </r>
       <r>     0.5471    54.9054   421.8788 </r>
       <r>     0.6475    70.7849   430.3731 </r>
       <r>     0.7479    72.2846   439.4899 </r>
       <r>     0.8483    79.4300   450.0076 </r>
       <r>     0.9486    81.4882   460.9142 </r>
       <r>     1.0490    67.4594   470.5725 </r>
       <r>     1.1494    68.2855   479.6554 </r>
       <r>     1.2498     0.6640   480.0000 </r>
       <r>     1.3502     0.0000   480.0000 </r>
       <r>     1.4506     0.0000   480.0000 </r>
       <r>     1.5510     0.0000   480.0000 </r>
       <r>     1.6513     0.0000   480.0000 </r>
       <r>     1.7517     0.0000   480.0000 </r>
       <r>     1.8521     0.0000   480.0000 </r>
       <r>     1.9525     0.0000   480.0000 </r>
       <r>     2.0529     0.0000   480.0000 </r>
       <r>     2.1533     0.0000   480.0000 </r>
       <r>     2.2537     0.0000   480.0000 </r>
       <r>     2.3541     0.0000   480.0000 </r>
       <r>     2.4544     0.0000   480.0000 </r>
       <r>     2.5548     0.0000   480.0000 </r>
      </set>
     </set>
    </array>
   </total>
  </dos>
 </calculation>
 <structure name="finalpos" >
  <crystal>
   <varray name="basis" >
    <v>      30.04526519       0.00000000       0.00000000 </v>
    <v>     -15.02263259      26.01996292       0.00000000 </v>
    <v>       0.00000000       0.00000000      20.00000000 </v>
   </varray>
   <i name="volume">  15635.53372071 </i>
   <varray name="rec_basis" >
    <v>       0.03328311       0.01921602       0.00000000 </v>
    <v>       0.00000000       0.03843203       0.00000000 </v>
    <v>       0.00000000       0.00000000       0.05000000 </v>
   </varray>
  </crystal>
  <varray name="positions" >
   <v>       0.03027239       0.51513619       0.66149474 </v>
   <v>       0.04853573       0.52426786       0.39790168 </v>
   <v>       0.11875906       0.48786069       0.50521403 </v>
   <v>       0.21252866       0.53432575       0.50427293 </v>
   <v>       0.11875906       0.63089837       0.50521403 </v>
   <v>       0.21252866       0.67820291       0.50427293 </v>
   <v>       0.32179709       0.78747134       0.50427293 </v>
   <v>       0.36910163       0.88124094       0.50521403 </v>
   <v>       0.46567425       0.78747134       0.50427293 </v>
   <v>       0.51213931       0.88124094       0.50521403 </v>
   <v>       0.46567425       0.67820291       0.50427293 </v>
   <v>       0.51213931       0.63089837       0.50521403 </v>
   <v>       0.36910163       0.48786069       0.50521403 </v>
   <v>       0.32179709       0.53432575       0.50427293 </v>
   <v>       0.28580792       0.57161584       0.50430472 </v>
   <v>       0.28580792       0.71419208       0.50430472 </v>
   <v>       0.42838416       0.71419208       0.50430472 </v>
   <v>       0.88123511       0.51213357       0.50387409 </v>
   <v>       0.78745477       0.46566529       0.50476325 </v>
   <v>       0.88123511       0.36910154       0.50387409 </v>
   <v>       0.78745477       0.32178948       0.50476325 </v>
   <v>       0.67821052       0.21254523       0.50476325 </v>
   <v>       0.63089846       0.11876489       0.50387409 </v>
   <v>       0.53433471       0.21254523       0.50476325 </v>
   <v>       0.48786643       0.11876489       0.50387409 </v>
   <v>       0.53433471       0.32178948       0.50476325 </v>
   <v>       0.48786643       0.36910154       0.50387409 </v>
   <v>       0.63089846       0.51213357       0.50387409 </v>
   <v>       0.67821052       0.46566529       0.50476325 </v>
   <v>       0.71419053       0.42838105       0.50469468 </v>
   <v>       0.71419053       0.28580947       0.50469468 </v>
   <v>       0.57161895       0.28580947       0.50469468 </v>
   <v>       0.52429213       0.47570787       0.61100656 </v>
   <v>       0.48486381       0.51513619       0.66149474 </v>
   <v>       0.52429213       0.04858426       0.61100656 </v>
   <v>       0.48486381       0.96972761       0.66149474 </v>
   <v>       0.95141574       0.47570787       0.61100656 </v>
   <v>       0.47573214       0.52426786       0.39790168 </v>
   <v>       0.51516520       0.48483480       0.34739131 </v>
   <v>       0.47573214       0.95146427       0.39790168 </v>
   <v>       0.51516520       0.03033041       0.34739131 </v>
   <v>       0.96966959       0.48483480       0.34739131 </v>
   <v>       0.05421067       0.52710533       0.62412405 </v>
   <v>       0.47289467       0.52710533       0.62412405 </v>
   <v>       0.47289467       0.94578933       0.62412405 </v>
   <v>       0.52714493       0.47285507       0.38473900 </v>
   <v>       0.52714493       0.05428986       0.38473900 </v>
   <v>       0.94571014       0.47285507       0.38473900 </v>
   <v>       0.02664659       0.51332329       0.56525448 </v>
   <v>       0.02702545       0.51351272       0.44487372 </v>
   <v>       0.05450424       0.52725212       0.50505301 </v>
   <v>       0.27877702       0.63938851       0.50416859 </v>
   <v>       0.30668129       0.61336258       0.50418405 </v>
   <v>       0.36061149       0.63938851       0.50416859 </v>
   <v>       0.38663742       0.69331871       0.50418405 </v>
   <v>       0.36061149       0.72122298       0.50416859 </v>
   <v>       0.30668129       0.69331871       0.50418405 </v>
   <v>       0.38925778       0.61074222       0.50426089 </v>
   <v>       0.36362899       0.55663781       0.50438275 </v>
   <v>       0.39032538       0.52980229       0.50480552 </v>
   <v>       0.44415118       0.55584882       0.50497891 </v>
   <v>       0.47019771       0.60967462       0.50480552 </v>
   <v>       0.44336219       0.63637101       0.50438275 </v>
   <v>       0.22148445       0.61074222       0.50426089 </v>
   <v>       0.19300882       0.55663781       0.50438275 </v>
   <v>       0.13947690       0.52980229       0.50480552 </v>
   <v>       0.11169763       0.55584882       0.50497891 </v>
   <v>       0.13947690       0.60967462       0.50480552 </v>
   <v>       0.19300882       0.63637101       0.50438275 </v>
   <v>       0.38925778       0.77851555       0.50426089 </v>
   <v>       0.36362899       0.80699118       0.50438275 </v>
   <v>       0.39032538       0.86052310       0.50480552 </v>
   <v>       0.44415118       0.88830237       0.50497891 </v>
   <v>       0.47019771       0.86052310       0.50480552 </v>
   <v>       0.44336219       0.80699118       0.50438275 </v>
   <v>       0.72121989       0.36060994       0.50480310 </v>
   <v>       0.69331811       0.38663623       0.50479216 </v>
   <v>       0.63939006       0.36060994       0.50480310 </v>
   <v>       0.61336377       0.30668189       0.50479216 </v>
   <v>       0.63939006       0.27878011       0.50480310 </v>
   <v>       0.69331811       0.30668189       0.50479216 </v>
   <v>       0.61074687       0.38925313       0.50472753 </v>
   <v>       0.63638070       0.44335712       0.50463232 </v>
   <v>       0.60968658       0.47019190       0.50421117 </v>
   <v>       0.55586401       0.44413599       0.50398693 </v>
   <v>       0.52980810       0.39031342       0.50421117 </v>
   <v>       0.55664288       0.36361930       0.50463232 </v>
   <v>       0.77850627       0.38925313       0.50472753 </v>
   <v>       0.80697642       0.44335712       0.50463232 </v>
   <v>       0.86050531       0.47019190       0.50421117 </v>
   <v>       0.88827199       0.44413599       0.50398693 </v>
   <v>       0.86050531       0.39031342       0.50421117 </v>
   <v>       0.80697642       0.36361930       0.50463232 </v>
   <v>       0.61074687       0.22149373       0.50472753 </v>
   <v>       0.63638070       0.19302358       0.50463232 </v>
   <v>       0.60968658       0.13949469       0.50421117 </v>
   <v>       0.55586401       0.11172801       0.50398693 </v>
   <v>       0.52980810       0.13949469       0.50421117 </v>
   <v>       0.55664288       0.19302358       0.50463232 </v>
   <v>       0.51353989       0.48646011       0.56402588 </v>
   <v>       0.48667671       0.51332329       0.56525448 </v>
   <v>       0.47274788       0.52725212       0.50505301 </v>
   <v>       0.51353989       0.02707978       0.56402588 </v>
   <v>       0.48667671       0.97335341       0.56525448 </v>
   <v>       0.47274788       0.94549576       0.50505301 </v>
   <v>       0.97292022       0.48646011       0.56402588 </v>
   <v>       0.48648728       0.51351272       0.44487372 </v>
   <v>       0.51335472       0.48664528       0.44362746 </v>
   <v>       0.52727481       0.47272519       0.50384827 </v>
   <v>       0.48648728       0.97297455       0.44487372 </v>
   <v>       0.51335472       0.02670944       0.44362746 </v>
   <v>       0.52727481       0.05454962       0.50384827 </v>
   <v>       0.97329056       0.48664528       0.44362746 </v>
   <v>       0.94545038       0.47272519       0.50384827 </v>
  </varray>
 </structure>
</modeling>
