<?xml version="1.0" encoding="ISO-8859-1"?>
<modeling>
 <generator>
  <i name="program" type="string">vasp </i>
  <i name="version" type="string">5.4.4.18Apr17-6-g9f103f2a35  </i>
  <i name="subversion" type="string">(build Jun 07 2020 16:50:00) complex            parallel </i>
  <i name="platform" type="string">LinuxIFC </i>
  <i name="date" type="string">2023 02 22 </i>
  <i name="time" type="string">02:19:59 </i>
 </generator>
 <incar>
  <i type="string" name="SYSTEM">Simulation for cell shape cell volume r</i>
  <i type="int" name="ISTART">     1</i>
  <i type="string" name="PREC">high</i>
  <i type="string" name="ALGO">48</i>
  <i type="int" name="ICHARG">    11</i>
  <i type="int" name="NELM">   200</i>
  <i type="int" name="IBRION">    -1</i>
  <i name="EDIFF">      0.00001000</i>
  <i name="EDIFFG">     -0.01000000</i>
  <i type="int" name="NSW">     0</i>
  <i type="int" name="ISIF">     2</i>
  <i name="ENCUT">    500.00000000</i>
  <i name="POTIM">      0.30000000</i>
  <i type="string" name="LREAL">A</i>
  <i type="int" name="ISMEAR">     0</i>
  <i name="SIGMA">      0.01000000</i>
  <i type="int" name="NWRITE">     0</i>
  <i type="logical" name="LWAVE"> F  </i>
  <i type="logical" name="LCHARG"> F  </i>
  <v type="int" name="KPOINT_BSE">    -1     0     0     0</v>
  <i type="int" name="NELM">   200</i>
  <i type="string" name="GGA">PE</i>
 </incar>
 <structure name="primitive_cell" >
  <crystal>
   <varray name="basis" >
    <v>      25.08481178       0.02684919       0.00000000 </v>
    <v>       0.00879872      25.09834396       0.00000000 </v>
    <v>       0.00000000       0.00000000      20.00000000 </v>
   </varray>
   <i name="volume">  12591.73995841 </i>
   <varray name="rec_basis" >
    <v>       0.03986477      -0.00001398       0.00000000 </v>
    <v>      -0.00004265       0.03984328       0.00000000 </v>
    <v>       0.00000000       0.00000000       0.05000000 </v>
   </varray>
  </crystal>
  <varray name="positions" >
   <v>      -0.15581290      -0.07699681       0.49993868 </v>
   <v>      -0.19883834      -0.07531173       0.49515004 </v>
   <v>      -0.12431470      -0.12172874      -0.49671399 </v>
   <v>      -0.12168451      -0.03119099      -0.49771432 </v>
   <v>      -0.13704560      -0.16299000      -0.49823371 </v>
   <v>      -0.07026402      -0.05001239      -0.49274982 </v>
   <v>      -0.06980202      -0.10486524      -0.49238912 </v>
   <v>      -0.13733940       0.02251188       0.49764903 </v>
   <v>      -0.19580824       0.03281115       0.49417722 </v>
   <v>      -0.21149338       0.00375626      -0.40612934 </v>
   <v>      -0.22911064       0.02038877      -0.45146237 </v>
   <v>      -0.03705767      -0.02655559      -0.49203581 </v>
   <v>      -0.02456198      -0.13793097      -0.49119746 </v>
   <v>      -0.10240451       0.06657344       0.49539060 </v>
   <v>      -0.21899749       0.05474995       0.43658726 </v>
   <v>      -0.19370348       0.06422399       0.39383823 </v>
   <v>      -0.03467623      -0.19649892      -0.49035804 </v>
   <v>      -0.28380722       0.02961355      -0.45478189 </v>
   <v>      -0.06511519      -0.19741954      -0.38951123 </v>
   <v>      -0.04779954       0.06423995       0.49673665 </v>
   <v>      -0.05603966      -0.22136005      -0.43362064 </v>
   <v>       0.02889295      -0.12044823      -0.49194329 </v>
   <v>      -0.27387371       0.06396798       0.43345695 </v>
   <v>      -0.30918516       0.01969917      -0.41220830 </v>
   <v>      -0.30695173       0.05161570       0.48761811 </v>
   <v>       0.04553963      -0.06847162      -0.49355787 </v>
   <v>      -0.12095478       0.12162419       0.49212358 </v>
   <v>      -0.02296333      -0.22794424       0.45335869 </v>
   <v>      -0.00678922      -0.20889218       0.40872780 </v>
   <v>      -0.16226515       0.13453113       0.49134171 </v>
   <v>       0.03471612       0.02250446       0.49498902 </v>
   <v>      -0.06501585      -0.27629310      -0.43297535 </v>
   <v>      -0.29128959       0.08090411       0.38810260 </v>
   <v>      -0.03116151       0.11623100       0.49420611 </v>
   <v>      -0.37682048      -0.01847352       0.45018463 </v>
   <v>      -0.03206598      -0.28267328       0.45414358 </v>
   <v>      -0.07652291       0.15254916       0.49071205 </v>
   <v>       0.07422036      -0.15690440      -0.49055197 </v>
   <v>      -0.08134410      -0.29514067      -0.38820954 </v>
   <v>      -0.36639484       0.06013757       0.48404749 </v>
   <v>      -0.05316256      -0.30761497      -0.48895120 </v>
   <v>      -0.39351745       0.00882643       0.48121529 </v>
   <v>       0.06794448       0.04589816       0.49660639 </v>
   <v>       0.10014380      -0.07088142      -0.49329404 </v>
   <v>       0.07203426      -0.20007373      -0.48884221 </v>
   <v>      -0.02270291      -0.30665545       0.41011802 </v>
   <v>      -0.38094813       0.08108562      -0.47123330 </v>
   <v>       0.02230227       0.13384266       0.49450245 </v>
   <v>      -0.37658225       0.08568406       0.44076785 </v>
   <v>       0.11867294      -0.12600484      -0.49198711 </v>
   <v>      -0.07441089       0.19566654       0.48763979 </v>
   <v>       0.06752541       0.10073844       0.49687624 </v>
   <v>       0.11931966       0.02697056      -0.49805863 </v>
   <v>       0.13505647      -0.02678688      -0.49470930 </v>
   <v>      -0.45455796      -0.07698893       0.45321284 </v>
   <v>      -0.44806172       0.00471542       0.49000900 </v>
   <v>      -0.06106968      -0.36712153      -0.48789093 </v>
   <v>      -0.08768974      -0.37856688      -0.44616800 </v>
   <v>      -0.08060006      -0.38081433       0.46599889 </v>
   <v>       0.15996163      -0.13897900      -0.49249701 </v>
   <v>      -0.47560486      -0.04266957       0.47452148 </v>
   <v>       0.03257838       0.19233668       0.49324625 </v>
   <v>      -0.00162421       0.20661394      -0.40933609 </v>
   <v>       0.12198201       0.11749926      -0.49735901 </v>
   <v>      -0.47450334       0.04651083      -0.48374411 </v>
   <v>       0.15341764       0.07272157      -0.49425558 </v>
   <v>       0.01718408      -0.37661027      -0.45208392 </v>
   <v>      -0.00944616      -0.39383707      -0.48353602 </v>
   <v>       0.01749196       0.22482957      -0.45266260 </v>
   <v>       0.19355928      -0.03696468      -0.49176479 </v>
   <v>       0.19187209      -0.07078790      -0.39264476 </v>
   <v>       0.06942603       0.19156708       0.39580681 </v>
   <v>       0.05774334       0.21623521       0.43829592 </v>
   <v>       0.47232625      -0.04837330       0.48534753 </v>
   <v>       0.13472959       0.15871012      -0.49472603 </v>
   <v>       0.21702471      -0.06003202      -0.43503605 </v>
   <v>       0.20887527      -0.00561481       0.40956270 </v>
   <v>       0.19637394       0.07094909      -0.48867239 </v>
   <v>       0.22670684      -0.02302077       0.45429339 </v>
   <v>       0.47339075       0.04081022      -0.47301604 </v>
   <v>      -0.00541060      -0.44860998      -0.49000013 </v>
   <v>       0.02703611       0.27947555      -0.45385686 </v>
   <v>       0.44583168      -0.00655428      -0.48852495 </v>
   <v>      -0.04698437      -0.47517519       0.48355971 </v>
   <v>       0.06717801       0.27108555       0.43722888 </v>
   <v>       0.45230335       0.07514312      -0.45183687 </v>
   <v>       0.01497180       0.30422374      -0.41156345 </v>
   <v>       0.27202515      -0.06859772      -0.43221501 </v>
   <v>       0.05200222       0.30339769       0.49101451 </v>
   <v>       0.28150832      -0.03164006       0.45727352 </v>
   <v>       0.07539806      -0.45517122      -0.45011477 </v>
   <v>       0.04139866      -0.47629079      -0.47195126 </v>
   <v>       0.08646722       0.28909526       0.39379792 </v>
   <v>       0.28967813      -0.08632276      -0.38748862 </v>
   <v>       0.39118791      -0.01073603      -0.47999349 </v>
   <v>       0.30496473      -0.05451434      -0.48584594 </v>
   <v>      -0.04150178       0.47250780       0.47467002 </v>
   <v>       0.37914185      -0.08319255       0.47270103 </v>
   <v>       0.30672831      -0.02048737       0.41504365 </v>
   <v>       0.37512279      -0.08775451      -0.43931102 </v>
   <v>      -0.01725104       0.37335770       0.45317514 </v>
   <v>      -0.07563904       0.45133287       0.45325688 </v>
   <v>       0.36451126      -0.06232411      -0.48255138 </v>
   <v>       0.37452345       0.01625979      -0.44850527 </v>
   <v>       0.06065512       0.36283682       0.48951006 </v>
   <v>       0.04690857       0.47137697      -0.48088112 </v>
   <v>       0.00940992       0.39016095       0.48493161 </v>
   <v>       0.00544934       0.44486606       0.49228003 </v>
   <v>       0.08032887       0.37654314      -0.46446291 </v>
   <v>       0.08749683       0.37365358       0.44775303 </v>
  </varray>
 </structure>
 <varray name="primitive_index" >
  <v type="int" >        1 </v>
  <v type="int" >       71 </v>
  <v type="int" >        2 </v>
  <v type="int" >        4 </v>
  <v type="int" >       72 </v>
  <v type="int" >       57 </v>
  <v type="int" >        3 </v>
  <v type="int" >        5 </v>
  <v type="int" >       33 </v>
  <v type="int" >       70 </v>
  <v type="int" >       34 </v>
  <v type="int" >       73 </v>
  <v type="int" >       20 </v>
  <v type="int" >        6 </v>
  <v type="int" >       51 </v>
  <v type="int" >       96 </v>
  <v type="int" >       21 </v>
  <v type="int" >       35 </v>
  <v type="int" >       86 </v>
  <v type="int" >       58 </v>
  <v type="int" >       22 </v>
  <v type="int" >       17 </v>
  <v type="int" >       52 </v>
  <v type="int" >       69 </v>
  <v type="int" >       36 </v>
  <v type="int" >       60 </v>
  <v type="int" >        9 </v>
  <v type="int" >       46 </v>
  <v type="int" >      101 </v>
  <v type="int" >       75 </v>
  <v type="int" >       74 </v>
  <v type="int" >       23 </v>
  <v type="int" >       95 </v>
  <v type="int" >        7 </v>
  <v type="int" >      108 </v>
  <v type="int" >       45 </v>
  <v type="int" >        8 </v>
  <v type="int" >       18 </v>
  <v type="int" >       85 </v>
  <v type="int" >       39 </v>
  <v type="int" >       24 </v>
  <v type="int" >       66 </v>
  <v type="int" >       59 </v>
  <v type="int" >       16 </v>
  <v type="int" >       81 </v>
  <v type="int" >      102 </v>
  <v type="int" >       89 </v>
  <v type="int" >       10 </v>
  <v type="int" >      105 </v>
  <v type="int" >       19 </v>
  <v type="int" >       76 </v>
  <v type="int" >       11 </v>
  <v type="int" >       12 </v>
  <v type="int" >       15 </v>
  <v type="int" >      107 </v>
  <v type="int" >       54 </v>
  <v type="int" >       38 </v>
  <v type="int" >       88 </v>
  <v type="int" >      104 </v>
  <v type="int" >       82 </v>
  <v type="int" >       53 </v>
  <v type="int" >       29 </v>
  <v type="int" >       77 </v>
  <v type="int" >       14 </v>
  <v type="int" >       61 </v>
  <v type="int" >       13 </v>
  <v type="int" >       94 </v>
  <v type="int" >       64 </v>
  <v type="int" >       32 </v>
  <v type="int" >       25 </v>
  <v type="int" >       83 </v>
  <v type="int" >       97 </v>
  <v type="int" >       49 </v>
  <v type="int" >       65 </v>
  <v type="int" >       79 </v>
  <v type="int" >       26 </v>
  <v type="int" >       99 </v>
  <v type="int" >       80 </v>
  <v type="int" >       48 </v>
  <v type="int" >       42 </v>
  <v type="int" >       43 </v>
  <v type="int" >       31 </v>
  <v type="int" >       41 </v>
  <v type="int" >       67 </v>
  <v type="int" >       50 </v>
  <v type="int" >       91 </v>
  <v type="int" >       78 </v>
  <v type="int" >       27 </v>
  <v type="int" >       30 </v>
  <v type="int" >       47 </v>
  <v type="int" >       93 </v>
  <v type="int" >       44 </v>
  <v type="int" >       98 </v>
  <v type="int" >       84 </v>
  <v type="int" >       62 </v>
  <v type="int" >       28 </v>
  <v type="int" >       55 </v>
  <v type="int" >      103 </v>
  <v type="int" >      100 </v>
  <v type="int" >       87 </v>
  <v type="int" >      110 </v>
  <v type="int" >      109 </v>
  <v type="int" >       37 </v>
  <v type="int" >       92 </v>
  <v type="int" >       40 </v>
  <v type="int" >       63 </v>
  <v type="int" >       68 </v>
  <v type="int" >       56 </v>
  <v type="int" >       90 </v>
  <v type="int" >      106 </v>
 </varray>
 <kpoints>
  <generation param="listgenerated">
   <i name="divisions" type="int">      20 </i>
   <v>       0.00000000       0.00000000       0.00000000 </v>
   <v>       0.50000000       0.00000000       0.00000000 </v>
   <v>       0.50000000       0.50000000       0.00000000 </v>
   <v>       0.00000000       0.00000000       0.00000000 </v>
  </generation>
  <varray name="kpointlist" >
   <v>       0.00000000       0.00000000       0.00000000 </v>
   <v>       0.02631579       0.00000000       0.00000000 </v>
   <v>       0.05263158       0.00000000       0.00000000 </v>
   <v>       0.07894737       0.00000000       0.00000000 </v>
   <v>       0.10526316       0.00000000       0.00000000 </v>
   <v>       0.13157895       0.00000000       0.00000000 </v>
   <v>       0.15789474       0.00000000       0.00000000 </v>
   <v>       0.18421053       0.00000000       0.00000000 </v>
   <v>       0.21052632       0.00000000       0.00000000 </v>
   <v>       0.23684211       0.00000000       0.00000000 </v>
   <v>       0.26315789       0.00000000       0.00000000 </v>
   <v>       0.28947368       0.00000000       0.00000000 </v>
   <v>       0.31578947       0.00000000       0.00000000 </v>
   <v>       0.34210526       0.00000000       0.00000000 </v>
   <v>       0.36842105       0.00000000       0.00000000 </v>
   <v>       0.39473684       0.00000000       0.00000000 </v>
   <v>       0.42105263       0.00000000       0.00000000 </v>
   <v>       0.44736842       0.00000000       0.00000000 </v>
   <v>       0.47368421       0.00000000       0.00000000 </v>
   <v>       0.50000000       0.00000000       0.00000000 </v>
   <v>       0.50000000       0.00000000       0.00000000 </v>
   <v>       0.50000000       0.02631579       0.00000000 </v>
   <v>       0.50000000       0.05263158       0.00000000 </v>
   <v>       0.50000000       0.07894737       0.00000000 </v>
   <v>       0.50000000       0.10526316       0.00000000 </v>
   <v>       0.50000000       0.13157895       0.00000000 </v>
   <v>       0.50000000       0.15789474       0.00000000 </v>
   <v>       0.50000000       0.18421053       0.00000000 </v>
   <v>       0.50000000       0.21052632       0.00000000 </v>
   <v>       0.50000000       0.23684211       0.00000000 </v>
   <v>       0.50000000       0.26315789       0.00000000 </v>
   <v>       0.50000000       0.28947368       0.00000000 </v>
   <v>       0.50000000       0.31578947       0.00000000 </v>
   <v>       0.50000000       0.34210526       0.00000000 </v>
   <v>       0.50000000       0.36842105       0.00000000 </v>
   <v>       0.50000000       0.39473684       0.00000000 </v>
   <v>       0.50000000       0.42105263       0.00000000 </v>
   <v>       0.50000000       0.44736842       0.00000000 </v>
   <v>       0.50000000       0.47368421       0.00000000 </v>
   <v>       0.50000000       0.50000000       0.00000000 </v>
   <v>       0.50000000       0.50000000       0.00000000 </v>
   <v>       0.47368421       0.47368421       0.00000000 </v>
   <v>       0.44736842       0.44736842       0.00000000 </v>
   <v>       0.42105263       0.42105263       0.00000000 </v>
   <v>       0.39473684       0.39473684       0.00000000 </v>
   <v>       0.36842105       0.36842105       0.00000000 </v>
   <v>       0.34210526       0.34210526       0.00000000 </v>
   <v>       0.31578947       0.31578947       0.00000000 </v>
   <v>       0.28947368       0.28947368       0.00000000 </v>
   <v>       0.26315789       0.26315789       0.00000000 </v>
   <v>       0.23684211       0.23684211       0.00000000 </v>
   <v>       0.21052632       0.21052632       0.00000000 </v>
   <v>       0.18421053       0.18421053       0.00000000 </v>
   <v>       0.15789474       0.15789474       0.00000000 </v>
   <v>       0.13157895       0.13157895       0.00000000 </v>
   <v>       0.10526316       0.10526316       0.00000000 </v>
   <v>       0.07894737       0.07894737       0.00000000 </v>
   <v>       0.05263158       0.05263158       0.00000000 </v>
   <v>       0.02631579       0.02631579       0.00000000 </v>
   <v>       0.00000000       0.00000000       0.00000000 </v>
  </varray>
  <varray name="weights" >
   <v>       0.01666667 </v>
   <v>       0.01666667 </v>
   <v>       0.01666667 </v>
   <v>       0.01666667 </v>
   <v>       0.01666667 </v>
   <v>       0.01666667 </v>
   <v>       0.01666667 </v>
   <v>       0.01666667 </v>
   <v>       0.01666667 </v>
   <v>       0.01666667 </v>
   <v>       0.01666667 </v>
   <v>       0.01666667 </v>
   <v>       0.01666667 </v>
   <v>       0.01666667 </v>
   <v>       0.01666667 </v>
   <v>       0.01666667 </v>
   <v>       0.01666667 </v>
   <v>       0.01666667 </v>
   <v>       0.01666667 </v>
   <v>       0.01666667 </v>
   <v>       0.01666667 </v>
   <v>       0.01666667 </v>
   <v>       0.01666667 </v>
   <v>       0.01666667 </v>
   <v>       0.01666667 </v>
   <v>       0.01666667 </v>
   <v>       0.01666667 </v>
   <v>       0.01666667 </v>
   <v>       0.01666667 </v>
   <v>       0.01666667 </v>
   <v>       0.01666667 </v>
   <v>       0.01666667 </v>
   <v>       0.01666667 </v>
   <v>       0.01666667 </v>
   <v>       0.01666667 </v>
   <v>       0.01666667 </v>
   <v>       0.01666667 </v>
   <v>       0.01666667 </v>
   <v>       0.01666667 </v>
   <v>       0.01666667 </v>
   <v>       0.01666667 </v>
   <v>       0.01666667 </v>
   <v>       0.01666667 </v>
   <v>       0.01666667 </v>
   <v>       0.01666667 </v>
   <v>       0.01666667 </v>
   <v>       0.01666667 </v>
   <v>       0.01666667 </v>
   <v>       0.01666667 </v>
   <v>       0.01666667 </v>
   <v>       0.01666667 </v>
   <v>       0.01666667 </v>
   <v>       0.01666667 </v>
   <v>       0.01666667 </v>
   <v>       0.01666667 </v>
   <v>       0.01666667 </v>
   <v>       0.01666667 </v>
   <v>       0.01666667 </v>
   <v>       0.01666667 </v>
   <v>       0.01666667 </v>
  </varray>
 </kpoints>
 <parameters>
  <separator name="general" >
   <i type="string" name="SYSTEM">Simulation for cell shape cell volume r</i>
   <i type="logical" name="LCOMPAT"> F  </i>
  </separator>
  <separator name="electronic" >
   <i type="string" name="PREC">high</i>
   <i name="ENMAX">    500.00000000</i>
   <i name="ENAUG">    644.87300000</i>
   <i name="EDIFF">      0.00001000</i>
   <i type="int" name="IALGO">    38</i>
   <i type="int" name="IWAVPR">    10</i>
   <i type="int" name="NBANDS">   224</i>
   <i name="NELECT">    326.00000000</i>
   <i type="int" name="TURBO">     0</i>
   <i type="int" name="IRESTART">     0</i>
   <i type="int" name="NREBOOT">     0</i>
   <i type="int" name="NMIN">     0</i>
   <i name="EREF">      0.00000000</i>
   <separator name="electronic smearing" >
    <i type="int" name="ISMEAR">     0</i>
    <i name="SIGMA">      0.01000000</i>
    <i name="KSPACING">      0.50000000</i>
    <i type="logical" name="KGAMMA"> T  </i>
   </separator>
   <separator name="electronic projectors" >
    <i type="logical" name="LREAL"> T  </i>
    <v name="ROPT">     -0.00040000     -0.00040000     -0.00040000</v>
    <i type="int" name="LMAXPAW">  -100</i>
    <i type="int" name="LMAXMIX">     2</i>
    <i type="logical" name="NLSPLINE"> F  </i>
   </separator>
   <separator name="electronic startup" >
    <i type="int" name="ISTART">     1</i>
    <i type="int" name="ICHARG">    11</i>
    <i type="int" name="INIWAV">     1</i>
   </separator>
   <separator name="electronic spin" >
    <i type="int" name="ISPIN">     1</i>
    <i type="logical" name="LNONCOLLINEAR"> F  </i>
    <v name="MAGMOM">      1.00000000      1.00000000      1.00000000      1.00000000      1.00000000      1.00000000      1.00000000      1.00000000      1.00000000      1.00000000      1.00000000      1.00000000      1.00000000      1.00000000      1.00000000      1.00000000      1.00000000      1.00000000      1.00000000      1.00000000
      1.00000000      1.00000000      1.00000000      1.00000000      1.00000000      1.00000000      1.00000000      1.00000000      1.00000000      1.00000000      1.00000000      1.00000000      1.00000000      1.00000000      1.00000000      1.00000000      1.00000000      1.00000000      1.00000000      1.00000000
      1.00000000      1.00000000      1.00000000      1.00000000      1.00000000      1.00000000      1.00000000      1.00000000      1.00000000      1.00000000      1.00000000      1.00000000      1.00000000      1.00000000      1.00000000      1.00000000      1.00000000      1.00000000      1.00000000      1.00000000
      1.00000000      1.00000000      1.00000000      1.00000000      1.00000000      1.00000000      1.00000000      1.00000000      1.00000000      1.00000000      1.00000000      1.00000000      1.00000000      1.00000000      1.00000000      1.00000000      1.00000000      1.00000000      1.00000000      1.00000000
      1.00000000      1.00000000      1.00000000      1.00000000      1.00000000      1.00000000      1.00000000      1.00000000      1.00000000      1.00000000      1.00000000      1.00000000      1.00000000      1.00000000      1.00000000      1.00000000      1.00000000      1.00000000      1.00000000      1.00000000
      1.00000000      1.00000000      1.00000000      1.00000000      1.00000000      1.00000000      1.00000000      1.00000000      1.00000000      1.00000000</v>
    <i name="NUPDOWN">     -1.00000000</i>
    <i type="logical" name="LSORBIT"> F  </i>
    <v name="SAXIS">      0.00000000      0.00000000      1.00000000</v>
    <i type="logical" name="LSPIRAL"> F  </i>
    <v name="QSPIRAL">      0.00000000      0.00000000      0.00000000</v>
    <i type="logical" name="LZEROZ"> F  </i>
   </separator>
   <separator name="electronic exchange-correlation" >
    <i type="logical" name="LASPH"> F  </i>
    <i type="logical" name="LMETAGGA"> F  </i>
   </separator>
   <separator name="electronic convergence" >
    <i type="int" name="NELM">   200</i>
    <i type="int" name="NELMDL">     0</i>
    <i type="int" name="NELMIN">     2</i>
    <i name="ENINI">    500.00000000</i>
    <separator name="electronic convergence detail" >
     <i type="logical" name="LDIAG"> T  </i>
     <i type="logical" name="LSUBROT"> F  </i>
     <i name="WEIMIN">      0.00000000</i>
     <i name="EBREAK">      0.00000001</i>
     <i name="DEPER">      0.30000000</i>
     <i type="int" name="NRMM">     4</i>
     <i name="TIME">      0.40000000</i>
    </separator>
   </separator>
   <separator name="electronic mixer" >
    <i name="AMIX">      0.40000000</i>
    <i name="BMIX">      1.00000000</i>
    <i name="AMIN">      0.10000000</i>
    <i name="AMIX_MAG">      1.60000000</i>
    <i name="BMIX_MAG">      1.00000000</i>
    <separator name="electronic mixer details" >
     <i type="int" name="IMIX">     4</i>
     <i type="logical" name="MIXFIRST"> F  </i>
     <i type="int" name="MAXMIX">   -45</i>
     <i name="WC">    100.00000000</i>
     <i type="int" name="INIMIX">     1</i>
     <i type="int" name="MIXPRE">     1</i>
     <i type="int" name="MREMOVE">     5</i>
    </separator>
   </separator>
   <separator name="electronic dipolcorrection" >
    <i type="logical" name="LDIPOL"> F  </i>
    <i type="logical" name="LMONO"> F  </i>
    <i type="int" name="IDIPOL">     0</i>
    <i name="EPSILON">      1.00000000</i>
    <v name="DIPOL">   -100.00000000   -100.00000000   -100.00000000</v>
    <i name="EFIELD">      0.00000000</i>
   </separator>
  </separator>
  <separator name="grids" >
   <i type="int" name="NGX">   192</i>
   <i type="int" name="NGY">   192</i>
   <i type="int" name="NGZ">   150</i>
   <i type="int" name="NGXF">   280</i>
   <i type="int" name="NGYF">   280</i>
   <i type="int" name="NGZF">   224</i>
   <i type="logical" name="ADDGRID"> F  </i>
  </separator>
  <separator name="ionic" >
   <i type="int" name="NSW">     0</i>
   <i type="int" name="IBRION">    -1</i>
   <i type="int" name="MDALGO">     0</i>
   <i type="int" name="ISIF">     2</i>
   <i name="PSTRESS">      0.00000000</i>
   <i name="EDIFFG">     -0.01000000</i>
   <i type="int" name="NFREE">     0</i>
   <i name="POTIM">      0.30000000</i>
   <i name="SMASS">     -3.00000000</i>
   <i name="SCALEE">      1.00000000</i>
  </separator>
  <separator name="ionic md" >
   <i name="TEBEG">      0.00010000</i>
   <i name="TEEND">      0.00010000</i>
   <i type="int" name="NBLOCK">     1</i>
   <i type="int" name="KBLOCK">     1</i>
   <i type="int" name="NPACO">   256</i>
   <i name="APACO">     16.00000000</i>
  </separator>
  <separator name="symmetry" >
   <i type="int" name="ISYM">     2</i>
   <i name="SYMPREC">      0.00001000</i>
  </separator>
  <separator name="dos" >
   <i type="int" name="LORBIT">     0</i>
   <v name="RWIGS">     -1.00000000     -1.00000000     -1.00000000</v>
   <i type="int" name="NEDOS">   301</i>
   <i name="EMIN">     10.00000000</i>
   <i name="EMAX">    -10.00000000</i>
   <i name="EFERMI">      0.00000000</i>
  </separator>
  <separator name="writing" >
   <i type="int" name="NWRITE">     0</i>
   <i type="logical" name="LWAVE"> F  </i>
   <i type="logical" name="LDOWNSAMPLE"> F  </i>
   <i type="logical" name="LCHARG"> F  </i>
   <i type="logical" name="LPARD"> F  </i>
   <i type="logical" name="LVTOT"> F  </i>
   <i type="logical" name="LVHAR"> F  </i>
   <i type="logical" name="LELF"> F  </i>
   <i type="logical" name="LOPTICS"> F  </i>
   <v name="STM">      0.00000000      0.00000000      0.00000000      0.00000000      0.00000000      0.00000000      0.00000000</v>
  </separator>
  <separator name="performance" >
   <i type="int" name="NPAR">    16</i>
   <i type="int" name="NSIM">     4</i>
   <i type="int" name="NBLK">    -1</i>
   <i type="logical" name="LPLANE"> T  </i>
   <i type="logical" name="LSCALAPACK"> T  </i>
   <i type="logical" name="LSCAAWARE"> F  </i>
   <i type="logical" name="LSCALU"> F  </i>
   <i type="logical" name="LASYNC"> F  </i>
   <i type="logical" name="LORBITALREAL"> F  </i>
  </separator>
  <separator name="miscellaneous" >
   <i type="int" name="IDIOT">     3</i>
   <i type="int" name="ISPECIAL">     0</i>
   <i type="logical" name="LMUSIC"> F  </i>
   <v name="POMASS">     12.01100000     14.00100000      1.00000000</v>
   <v name="DARWINR">      0.00000000      0.00000000      0.00000000</v>
   <v name="DARWINV">      1.00000000      1.00000000      1.00000000</v>
   <i type="logical" name="LCORR"> T  </i>
  </separator>
  <i type="logical" name="GGA_COMPAT"> T  </i>
  <i type="logical" name="LBERRY"> F  </i>
  <i type="int" name="ICORELEVEL">     0</i>
  <i type="logical" name="LDAU"> F  </i>
  <i type="int" name="I_CONSTRAINED_M">     0</i>
  <separator name="electronic exchange-correlation" >
   <i type="string" name="GGA">PE</i>
   <i type="int" name="VOSKOWN">     0</i>
   <i type="logical" name="LHFCALC"> F  </i>
   <i type="string" name="PRECFOCK"></i>
   <i type="logical" name="LSYMGRAD"> F  </i>
   <i type="logical" name="LHFONE"> F  </i>
   <i type="logical" name="LRHFCALC"> F  </i>
   <i type="logical" name="LTHOMAS"> F  </i>
   <i type="logical" name="LMODELHF"> F  </i>
   <i name="ENCUT4O">     -1.00000000</i>
   <i type="int" name="EXXOEP">     0</i>
   <i type="int" name="FOURORBIT">     0</i>
   <i name="AEXX">      0.00000000</i>
   <i name="HFALPHA">      0.00000000</i>
   <i name="MCALPHA">      0.00000000</i>
   <i name="ALDAX">      1.00000000</i>
   <i name="AGGAX">      1.00000000</i>
   <i name="ALDAC">      1.00000000</i>
   <i name="AGGAC">      1.00000000</i>
   <i type="int" name="NKREDX">     1</i>
   <i type="int" name="NKREDY">     1</i>
   <i type="int" name="NKREDZ">     1</i>
   <i type="logical" name="SHIFTRED"> F  </i>
   <i type="logical" name="ODDONLY"> F  </i>
   <i type="logical" name="EVENONLY"> F  </i>
   <i type="int" name="LMAXFOCK">     0</i>
   <i type="int" name="NMAXFOCKAE">     0</i>
   <i type="logical" name="LFOCKAEDFT"> F  </i>
   <i name="HFSCREEN">      0.00000000</i>
   <i name="HFSCREENC">      0.00000000</i>
   <i type="int" name="NBANDSGWLOW">     0</i>
  </separator>
  <separator name="vdW DFT" >
   <i type="logical" name="LUSE_VDW"> F  </i>
   <i name="Zab_VDW">     -0.84910000</i>
   <i name="PARAM1">      0.12340000</i>
   <i name="PARAM2">      1.00000000</i>
   <i name="PARAM3">      0.00000000</i>
  </separator>
  <separator name="model GW" >
   <i type="int" name="MODEL_GW">     0</i>
   <i name="MODEL_EPS0">     68.68221795</i>
   <i name="MODEL_ALPHA">      1.00000000</i>
  </separator>
  <separator name="linear response parameters" >
   <i type="logical" name="LEPSILON"> F  </i>
   <i type="logical" name="LRPA"> F  </i>
   <i type="logical" name="LNABLA"> F  </i>
   <i type="logical" name="LVEL"> F  </i>
   <i type="int" name="KINTER">     0</i>
   <i name="CSHIFT">      0.10000000</i>
   <i name="OMEGAMAX">     -1.00000000</i>
   <i name="DEG_THRESHOLD">      0.00200000</i>
   <i name="RTIME">     -0.10000000</i>
   <i name="WPLASMAI">      0.00000000</i>
   <v name="DFIELD">      0.00000000      0.00000000      0.00000000</v>
   <v name="WPLASMA">      0.00000000      0.00000000      0.00000000      0.00000000      0.00000000      0.00000000      0.00000000      0.00000000      0.00000000</v>
  </separator>
  <separator name="orbital magnetization" >
   <i type="logical" name="NUCIND"> F  </i>
   <v name="MAGPOS">      0.00000000      0.00000000      0.00000000</v>
   <i type="logical" name="LNICSALL"> T  </i>
   <i type="logical" name="ORBITALMAG"> F  </i>
   <i type="logical" name="LMAGBLOCH"> F  </i>
   <i type="logical" name="LCHIMAG"> F  </i>
   <i type="logical" name="LGAUGE"> T  </i>
   <i type="int" name="MAGATOM">     0</i>
   <v name="MAGDIPOL">      0.00000000      0.00000000      0.00000000</v>
   <v name="AVECCONST">      0.00000000      0.00000000      0.00000000</v>
  </separator>
  <separator name="response functions" >
   <i type="logical" name="LADDER"> F  </i>
   <i type="logical" name="LRPAFORCE"> F  </i>
   <i type="logical" name="LFXC"> F  </i>
   <i type="logical" name="LHARTREE"> T  </i>
   <i type="int" name="IBSE">     0</i>
   <v type="int" name="KPOINT">    -1     0     0     0</v>
   <i type="logical" name="LTCTE"> F  </i>
   <i type="logical" name="LTETE"> F  </i>
   <i type="logical" name="LTRIPLET"> F  </i>
   <i type="logical" name="LFXCEPS"> F  </i>
   <i type="logical" name="LFXHEG"> F  </i>
   <i type="int" name="NATURALO">     2</i>
   <i type="logical" name="L2ORDER"> F  </i>
   <i type="logical" name="LMP2LT"> F  </i>
   <i type="logical" name="LUSEW"> F  </i>
   <i name="ENCUTGW">     -2.00000000</i>
   <i name="ENCUTGWSOFT">     -2.00000000</i>
   <i name="ENCUTLF">     -1.00000000</i>
   <i type="int" name="LMAXMP2">    -1</i>
   <i name="SCISSOR">      0.00000000</i>
   <i type="int" name="NOMEGA">     0</i>
   <i type="int" name="NOMEGAR">     0</i>
   <i type="int" name="NBANDSGW">    -1</i>
   <i type="int" name="NBANDSO">    -1</i>
   <i type="int" name="NBANDSV">    -1</i>
   <i type="int" name="NELM">   200</i>
   <i type="int" name="NELMHF">     1</i>
   <i type="int" name="DIM">     3</i>
   <i type="int" name="ANTIRES">     0</i>
   <i name="OMEGAMAX">    -30.00000000</i>
   <i name="OMEGAMIN">    -30.00000000</i>
   <i name="OMEGATL">   -200.00000000</i>
   <i type="int" name="OMEGAGRID">   140</i>
   <i name="CSHIFT">     -0.10000000</i>
   <i type="logical" name="SELFENERGY"> F  </i>
   <i type="logical" name="LSPECTRAL"> F  </i>
   <i type="logical" name="LSPECTRALGW"> F  </i>
   <i type="logical" name="LSINGLES"> F  </i>
   <i type="logical" name="LFERMIGW"> F  </i>
   <i type="logical" name="ODDONLYGW"> F  </i>
   <i type="logical" name="EVENONLYGW"> F  </i>
   <i type="int" name="NKREDLFX">     1</i>
   <i type="int" name="NKREDLFY">     1</i>
   <i type="int" name="NKREDLFZ">     1</i>
   <i type="int" name="MAXMEM">  2800</i>
   <i type="int" name="TELESCOPE">     0</i>
   <i type="int" name="TAUPAR">     1</i>
   <i type="int" name="OMEGAPAR">    -1</i>
   <i name="LAMBDA">      1.00000000</i>
  </separator>
  <separator name="External order field" >
   <i name="OFIELD_KAPPA">      0.00000000</i>
   <v name="OFIELD_K">      0.00000000      0.00000000      0.00000000</v>
   <i name="OFIELD_Q6_NEAR">      0.00000000</i>
   <i name="OFIELD_Q6_FAR">      0.00000000</i>
   <i name="OFIELD_A">      0.00000000</i>
  </separator>
  <separator name="solvation model" >
   <i type="logical" name="LSOL"> F  </i>
  </separator>
 </parameters>
 <atominfo>
  <atoms>     110 </atoms>
  <types>       3 </types>
  <array name="atoms" >
   <dimension dim="1">ion</dimension>
   <field type="string">element</field>
   <field type="int">atomtype</field>
   <set>
    <rc><c>C </c><c>   1</c></rc>
    <rc><c>C </c><c>   1</c></rc>
    <rc><c>C </c><c>   1</c></rc>
    <rc><c>C </c><c>   1</c></rc>
    <rc><c>C </c><c>   1</c></rc>
    <rc><c>C </c><c>   1</c></rc>
    <rc><c>C </c><c>   1</c></rc>
    <rc><c>C </c><c>   1</c></rc>
    <rc><c>C </c><c>   1</c></rc>
    <rc><c>C </c><c>   1</c></rc>
    <rc><c>C </c><c>   1</c></rc>
    <rc><c>C </c><c>   1</c></rc>
    <rc><c>C </c><c>   1</c></rc>
    <rc><c>C </c><c>   1</c></rc>
    <rc><c>C </c><c>   1</c></rc>
    <rc><c>C </c><c>   1</c></rc>
    <rc><c>C </c><c>   1</c></rc>
    <rc><c>C </c><c>   1</c></rc>
    <rc><c>C </c><c>   1</c></rc>
    <rc><c>C </c><c>   1</c></rc>
    <rc><c>C </c><c>   1</c></rc>
    <rc><c>C </c><c>   1</c></rc>
    <rc><c>C </c><c>   1</c></rc>
    <rc><c>C </c><c>   1</c></rc>
    <rc><c>C </c><c>   1</c></rc>
    <rc><c>C </c><c>   1</c></rc>
    <rc><c>C </c><c>   1</c></rc>
    <rc><c>C </c><c>   1</c></rc>
    <rc><c>C </c><c>   1</c></rc>
    <rc><c>C </c><c>   1</c></rc>
    <rc><c>C </c><c>   1</c></rc>
    <rc><c>C </c><c>   1</c></rc>
    <rc><c>C </c><c>   1</c></rc>
    <rc><c>C </c><c>   1</c></rc>
    <rc><c>C </c><c>   1</c></rc>
    <rc><c>C </c><c>   1</c></rc>
    <rc><c>C </c><c>   1</c></rc>
    <rc><c>C </c><c>   1</c></rc>
    <rc><c>C </c><c>   1</c></rc>
    <rc><c>C </c><c>   1</c></rc>
    <rc><c>C </c><c>   1</c></rc>
    <rc><c>C </c><c>   1</c></rc>
    <rc><c>C </c><c>   1</c></rc>
    <rc><c>C </c><c>   1</c></rc>
    <rc><c>C </c><c>   1</c></rc>
    <rc><c>C </c><c>   1</c></rc>
    <rc><c>C </c><c>   1</c></rc>
    <rc><c>C </c><c>   1</c></rc>
    <rc><c>C </c><c>   1</c></rc>
    <rc><c>C </c><c>   1</c></rc>
    <rc><c>C </c><c>   1</c></rc>
    <rc><c>C </c><c>   1</c></rc>
    <rc><c>C </c><c>   1</c></rc>
    <rc><c>C </c><c>   1</c></rc>
    <rc><c>C </c><c>   1</c></rc>
    <rc><c>C </c><c>   1</c></rc>
    <rc><c>N </c><c>   2</c></rc>
    <rc><c>N </c><c>   2</c></rc>
    <rc><c>N </c><c>   2</c></rc>
    <rc><c>N </c><c>   2</c></rc>
    <rc><c>N </c><c>   2</c></rc>
    <rc><c>N </c><c>   2</c></rc>
    <rc><c>N </c><c>   2</c></rc>
    <rc><c>N </c><c>   2</c></rc>
    <rc><c>N </c><c>   2</c></rc>
    <rc><c>N </c><c>   2</c></rc>
    <rc><c>N </c><c>   2</c></rc>
    <rc><c>N </c><c>   2</c></rc>
    <rc><c>H </c><c>   3</c></rc>
    <rc><c>H </c><c>   3</c></rc>
    <rc><c>H </c><c>   3</c></rc>
    <rc><c>H </c><c>   3</c></rc>
    <rc><c>H </c><c>   3</c></rc>
    <rc><c>H </c><c>   3</c></rc>
    <rc><c>H </c><c>   3</c></rc>
    <rc><c>H </c><c>   3</c></rc>
    <rc><c>H </c><c>   3</c></rc>
    <rc><c>H </c><c>   3</c></rc>
    <rc><c>H </c><c>   3</c></rc>
    <rc><c>H </c><c>   3</c></rc>
    <rc><c>H </c><c>   3</c></rc>
    <rc><c>H </c><c>   3</c></rc>
    <rc><c>H </c><c>   3</c></rc>
    <rc><c>H </c><c>   3</c></rc>
    <rc><c>H </c><c>   3</c></rc>
    <rc><c>H </c><c>   3</c></rc>
    <rc><c>H </c><c>   3</c></rc>
    <rc><c>H </c><c>   3</c></rc>
    <rc><c>H </c><c>   3</c></rc>
    <rc><c>H </c><c>   3</c></rc>
    <rc><c>H </c><c>   3</c></rc>
    <rc><c>H </c><c>   3</c></rc>
    <rc><c>H </c><c>   3</c></rc>
    <rc><c>H </c><c>   3</c></rc>
    <rc><c>H </c><c>   3</c></rc>
    <rc><c>H </c><c>   3</c></rc>
    <rc><c>H </c><c>   3</c></rc>
    <rc><c>H </c><c>   3</c></rc>
    <rc><c>H </c><c>   3</c></rc>
    <rc><c>H </c><c>   3</c></rc>
    <rc><c>H </c><c>   3</c></rc>
    <rc><c>H </c><c>   3</c></rc>
    <rc><c>H </c><c>   3</c></rc>
    <rc><c>H </c><c>   3</c></rc>
    <rc><c>H </c><c>   3</c></rc>
    <rc><c>H </c><c>   3</c></rc>
    <rc><c>H </c><c>   3</c></rc>
    <rc><c>H </c><c>   3</c></rc>
    <rc><c>H </c><c>   3</c></rc>
    <rc><c>H </c><c>   3</c></rc>
   </set>
  </array>
  <array name="atomtypes" >
   <dimension dim="1">type</dimension>
   <field type="int">atomspertype</field>
   <field type="string">element</field>
   <field>mass</field>
   <field>valence</field>
   <field type="string">pseudopotential</field>
   <set>
    <rc><c>  56</c><c>C </c><c>     12.01100000</c><c>      4.00000000</c><c>  PAW_PBE C 08Apr2002                   </c></rc>
    <rc><c>  12</c><c>N </c><c>     14.00100000</c><c>      5.00000000</c><c>  PAW_PBE N 08Apr2002                   </c></rc>
    <rc><c>  42</c><c>H </c><c>      1.00000000</c><c>      1.00000000</c><c>  PAW_PBE H 15Jun2001                   </c></rc>
   </set>
  </array>
 </atominfo>
 <structure name="initialpos" >
  <crystal>
   <varray name="basis" >
    <v>      25.08481178       0.02684919       0.00000000 </v>
    <v>       0.00879872      25.09834396       0.00000000 </v>
    <v>       0.00000000       0.00000000      20.00000000 </v>
   </varray>
   <i name="volume">  12591.73995841 </i>
   <varray name="rec_basis" >
    <v>       0.03986477      -0.00001398       0.00000000 </v>
    <v>      -0.00004265       0.03984328       0.00000000 </v>
    <v>       0.00000000       0.00000000       0.05000000 </v>
   </varray>
  </crystal>
  <varray name="positions" >
   <v>       0.84418710       0.92300319       0.49993868 </v>
   <v>       0.87568530       0.87827126       0.50328601 </v>
   <v>       0.93019798       0.89513476       0.50761088 </v>
   <v>       0.87831549       0.96880901       0.50228568 </v>
   <v>       0.86266060       0.02251188       0.49764903 </v>
   <v>       0.89759549       0.06657344       0.49539060 </v>
   <v>       0.96883849       0.11623100       0.49420611 </v>
   <v>       0.92347709       0.15254916       0.49071205 </v>
   <v>       0.87904522       0.12162419       0.49212358 </v>
   <v>       0.02230227       0.13384266       0.49450245 </v>
   <v>       0.06752541       0.10073844       0.49687624 </v>
   <v>       0.11931966       0.02697056       0.50194137 </v>
   <v>       0.15341764       0.07272157       0.50574442 </v>
   <v>       0.12198201       0.11749926       0.50264099 </v>
   <v>       0.13505647       0.97321312       0.50529070 </v>
   <v>       0.10014380       0.92911858       0.50670596 </v>
   <v>       0.02889295       0.87955177       0.50805671 </v>
   <v>       0.07422036       0.84309560       0.50944803 </v>
   <v>       0.11867294       0.87399516       0.50801289 </v>
   <v>       0.97543802       0.86206903       0.50880254 </v>
   <v>       0.96532377       0.80350108       0.50964196 </v>
   <v>       0.94396034       0.77863995       0.56637936 </v>
   <v>       0.93498415       0.72370690       0.56702465 </v>
   <v>       0.94683744       0.69238503       0.51104880 </v>
   <v>       0.19355928       0.96303532       0.50823521 </v>
   <v>       0.21702471       0.93996798       0.56496395 </v>
   <v>       0.27202515       0.93140228       0.56778499 </v>
   <v>       0.30496473       0.94548566       0.51415406 </v>
   <v>       0.03257838       0.19233668       0.49324625 </v>
   <v>       0.05200222       0.30339769       0.49101451 </v>
   <v>       0.02703611       0.27947555       0.54614314 </v>
   <v>       0.01749196       0.22482957       0.54733740 </v>
   <v>       0.80419176       0.03281115       0.49417722 </v>
   <v>       0.77088936       0.02038877       0.54853763 </v>
   <v>       0.71619278       0.02961355       0.54521811 </v>
   <v>       0.69304827       0.05161570       0.48761811 </v>
   <v>       0.36451126       0.93767589       0.51744862 </v>
   <v>       0.93893032       0.63287847       0.51210907 </v>
   <v>       0.63360516       0.06013757       0.48404749 </v>
   <v>       0.06065512       0.36283682       0.48951006 </v>
   <v>       0.44583168       0.99344572       0.51147505 </v>
   <v>       0.47339075       0.04081022       0.52698396 </v>
   <v>       0.99458940       0.55139002       0.50999987 </v>
   <v>       0.04139866       0.52370921       0.52804874 </v>
   <v>       0.96793402       0.71732672       0.45414358 </v>
   <v>       0.97703667       0.77205576       0.45335869 </v>
   <v>       0.28150832       0.96835994       0.45727352 </v>
   <v>       0.22670684       0.97697923       0.45429339 </v>
   <v>       0.05774334       0.21623521       0.43829592 </v>
   <v>       0.06717801       0.27108555       0.43722888 </v>
   <v>       0.78100251       0.05474995       0.43658726 </v>
   <v>       0.72612629       0.06396798       0.43345695 </v>
   <v>       0.52439514       0.95733043       0.47452148 </v>
   <v>       0.55193828       0.00471542       0.49000900 </v>
   <v>       0.95849822       0.47250780       0.47467002 </v>
   <v>       0.00544934       0.44486606       0.49228003 </v>
   <v>       0.92973598       0.94998761       0.50725018 </v>
   <v>       0.95220046       0.06423995       0.49673665 </v>
   <v>       0.06794448       0.04589816       0.49660639 </v>
   <v>       0.04553963       0.93152838       0.50644213 </v>
   <v>       0.52549666       0.04651083       0.51625589 </v>
   <v>       0.39118791       0.98926397       0.52000651 </v>
   <v>       0.04690857       0.47137697       0.51911888 </v>
   <v>       0.99055384       0.60616293       0.51646398 </v>
   <v>       0.47232625       0.95162670       0.48534753 </v>
   <v>       0.60648255       0.00882643       0.48121529 </v>
   <v>       0.95301563       0.52482481       0.48355971 </v>
   <v>       0.00940992       0.39016095       0.48493161 </v>
   <v>       0.69081484       0.01969917       0.58779170 </v>
   <v>       0.78850662       0.00375626       0.59387066 </v>
   <v>       0.80116166       0.92468827       0.49515004 </v>
   <v>       0.86295440       0.83701000       0.50176629 </v>
   <v>       0.96294233       0.97344441       0.50796419 </v>
   <v>       0.03471612       0.02250446       0.49498902 </v>
   <v>       0.83773485       0.13453113       0.49134171 </v>
   <v>       0.92558911       0.19566654       0.48763979 </v>
   <v>       0.99837579       0.20661394       0.59066391 </v>
   <v>       0.01497180       0.30422374       0.58843655 </v>
   <v>       0.13472959       0.15871012       0.50527397 </v>
   <v>       0.19637394       0.07094909       0.51132761 </v>
   <v>       0.07203426       0.79992627       0.51115779 </v>
   <v>       0.15996163       0.86102100       0.50750299 </v>
   <v>       0.19187209       0.92921210       0.60735524 </v>
   <v>       0.28967813       0.91367724       0.61251138 </v>
   <v>       0.91865590       0.70485933       0.61179046 </v>
   <v>       0.93488481       0.80258046       0.61048877 </v>
   <v>       0.37512279       0.91224549       0.56068898 </v>
   <v>       0.91231026       0.62143312       0.55383200 </v>
   <v>       0.61905187       0.08108562       0.52876670 </v>
   <v>       0.08032887       0.37654314       0.53553709 </v>
   <v>       0.45230335       0.07514312       0.54816313 </v>
   <v>       0.37452345       0.01625979       0.55149473 </v>
   <v>       0.07539806       0.54482878       0.54988523 </v>
   <v>       0.01718408       0.62338973       0.54791608 </v>
   <v>       0.70871041       0.08090411       0.38810260 </v>
   <v>       0.80629652       0.06422399       0.39383823 </v>
   <v>       0.06942603       0.19156708       0.39580681 </v>
   <v>       0.08646722       0.28909526       0.39379792 </v>
   <v>       0.20887527       0.99438519       0.40956270 </v>
   <v>       0.30672831       0.97951263       0.41504365 </v>
   <v>       0.99321078       0.79110782       0.40872780 </v>
   <v>       0.97729709       0.69334455       0.41011802 </v>
   <v>       0.37914185       0.91680745       0.47270103 </v>
   <v>       0.91939994       0.61918567       0.46599889 </v>
   <v>       0.62341775       0.08568406       0.44076785 </v>
   <v>       0.08749683       0.37365358       0.44775303 </v>
   <v>       0.54544204       0.92301107       0.45321284 </v>
   <v>       0.62317952       0.98152648       0.45018463 </v>
   <v>       0.92436096       0.45133287       0.45325688 </v>
   <v>       0.98274896       0.37335770       0.45317514 </v>
  </varray>
 </structure>
 <calculation>
  <scstep>
   <time name="dav">  221.49  223.46</time>
   <time name="total">  221.71  223.68</time>
   <energy>
    <i name="alphaZ">     39.11882501 </i>
    <i name="ewald">  41021.35176828 </i>
    <i name="hartreedc"> -50816.80199890 </i>
    <i name="XCdc">   1129.68147140 </i>
    <i name="pawpsdc">  29949.28613120 </i>
    <i name="pawaedc"> -30005.87875021 </i>
    <i name="eentropy">     -0.00000000 </i>
    <i name="bandstr">  -4011.47631329 </i>
    <i name="atom">  11939.15986206 </i>
    <i name="e_fr_energy">   -755.55900445 </i>
    <i name="e_wo_entrp">   -755.55900445 </i>
    <i name="e_0_energy">   -755.55900445 </i>
   </energy>
  </scstep>
  <scstep>
   <time name="dav">  253.81  256.04</time>
   <time name="total">  253.83  256.06</time>
   <energy>
    <i name="e_fr_energy">   -756.11482604 </i>
    <i name="e_wo_entrp">   -756.11482604 </i>
    <i name="e_0_energy">   -756.11482604 </i>
   </energy>
  </scstep>
  <scstep>
   <time name="dav">  275.37  278.01</time>
   <time name="total">  275.38  278.02</time>
   <energy>
    <i name="e_fr_energy">   -756.13026075 </i>
    <i name="e_wo_entrp">   -756.13026075 </i>
    <i name="e_0_energy">   -756.13026075 </i>
   </energy>
  </scstep>
  <scstep>
   <time name="dav">  250.14  252.39</time>
   <time name="total">  250.16  252.41</time>
   <energy>
    <i name="e_fr_energy">   -756.13053426 </i>
    <i name="e_wo_entrp">   -756.13053426 </i>
    <i name="e_0_energy">   -756.13053426 </i>
   </energy>
  </scstep>
  <scstep>
   <time name="dav">  240.60  242.73</time>
   <time name="total">  240.61  242.74</time>
   <energy>
    <i name="e_fr_energy">   -756.13054579 </i>
    <i name="e_wo_entrp">   -756.13054579 </i>
    <i name="e_0_energy">   -756.13054579 </i>
   </energy>
  </scstep>
  <scstep>
   <time name="dav">  190.80  192.49</time>
   <time name="total">  190.81  192.49</time>
   <energy>
    <i name="alphaZ">     39.11882501 </i>
    <i name="ewald">  41021.35176828 </i>
    <i name="hartreedc"> -50816.80199890 </i>
    <i name="XCdc">   1129.68147140 </i>
    <i name="pawpsdc">  29949.28613120 </i>
    <i name="pawaedc"> -30005.87875021 </i>
    <i name="eentropy">     -0.00000000 </i>
    <i name="bandstr">  -4012.04785485 </i>
    <i name="atom">  11939.15986206 </i>
    <i name="e_fr_energy">   -756.13054601 </i>
    <i name="e_wo_entrp">   -756.13054601 </i>
    <i name="e_0_energy">   -756.13054601 </i>
   </energy>
  </scstep>
  <structure>
   <crystal>
    <varray name="basis" >
     <v>      25.08481178       0.02684919       0.00000000 </v>
     <v>       0.00879872      25.09834396       0.00000000 </v>
     <v>       0.00000000       0.00000000      20.00000000 </v>
    </varray>
    <i name="volume">  12591.73995841 </i>
    <varray name="rec_basis" >
     <v>       0.03986477      -0.00001398       0.00000000 </v>
     <v>      -0.00004265       0.03984328       0.00000000 </v>
     <v>       0.00000000       0.00000000       0.05000000 </v>
    </varray>
   </crystal>
   <varray name="positions" >
    <v>       0.84418710       0.92300319       0.49993868 </v>
    <v>       0.87568530       0.87827126       0.50328601 </v>
    <v>       0.93019798       0.89513476       0.50761088 </v>
    <v>       0.87831549       0.96880901       0.50228568 </v>
    <v>       0.86266060       0.02251188       0.49764903 </v>
    <v>       0.89759549       0.06657344       0.49539060 </v>
    <v>       0.96883849       0.11623100       0.49420611 </v>
    <v>       0.92347709       0.15254916       0.49071205 </v>
    <v>       0.87904522       0.12162419       0.49212358 </v>
    <v>       0.02230227       0.13384266       0.49450245 </v>
    <v>       0.06752541       0.10073844       0.49687624 </v>
    <v>       0.11931966       0.02697056       0.50194137 </v>
    <v>       0.15341764       0.07272157       0.50574442 </v>
    <v>       0.12198201       0.11749926       0.50264099 </v>
    <v>       0.13505647       0.97321312       0.50529070 </v>
    <v>       0.10014380       0.92911858       0.50670596 </v>
    <v>       0.02889295       0.87955177       0.50805671 </v>
    <v>       0.07422036       0.84309560       0.50944803 </v>
    <v>       0.11867294       0.87399516       0.50801289 </v>
    <v>       0.97543802       0.86206903       0.50880254 </v>
    <v>       0.96532377       0.80350108       0.50964196 </v>
    <v>       0.94396034       0.77863995       0.56637936 </v>
    <v>       0.93498415       0.72370690       0.56702465 </v>
    <v>       0.94683744       0.69238503       0.51104880 </v>
    <v>       0.19355928       0.96303532       0.50823521 </v>
    <v>       0.21702471       0.93996798       0.56496395 </v>
    <v>       0.27202515       0.93140228       0.56778499 </v>
    <v>       0.30496473       0.94548566       0.51415406 </v>
    <v>       0.03257838       0.19233668       0.49324625 </v>
    <v>       0.05200222       0.30339769       0.49101451 </v>
    <v>       0.02703611       0.27947555       0.54614314 </v>
    <v>       0.01749196       0.22482957       0.54733740 </v>
    <v>       0.80419176       0.03281115       0.49417722 </v>
    <v>       0.77088936       0.02038877       0.54853763 </v>
    <v>       0.71619278       0.02961355       0.54521811 </v>
    <v>       0.69304827       0.05161570       0.48761811 </v>
    <v>       0.36451126       0.93767589       0.51744862 </v>
    <v>       0.93893032       0.63287847       0.51210907 </v>
    <v>       0.63360516       0.06013757       0.48404749 </v>
    <v>       0.06065512       0.36283682       0.48951006 </v>
    <v>       0.44583168       0.99344572       0.51147505 </v>
    <v>       0.47339075       0.04081022       0.52698396 </v>
    <v>       0.99458940       0.55139002       0.50999987 </v>
    <v>       0.04139866       0.52370921       0.52804874 </v>
    <v>       0.96793402       0.71732672       0.45414358 </v>
    <v>       0.97703667       0.77205576       0.45335869 </v>
    <v>       0.28150832       0.96835994       0.45727352 </v>
    <v>       0.22670684       0.97697923       0.45429339 </v>
    <v>       0.05774334       0.21623521       0.43829592 </v>
    <v>       0.06717801       0.27108555       0.43722888 </v>
    <v>       0.78100251       0.05474995       0.43658726 </v>
    <v>       0.72612629       0.06396798       0.43345695 </v>
    <v>       0.52439514       0.95733043       0.47452148 </v>
    <v>       0.55193828       0.00471542       0.49000900 </v>
    <v>       0.95849822       0.47250780       0.47467002 </v>
    <v>       0.00544934       0.44486606       0.49228003 </v>
    <v>       0.92973598       0.94998761       0.50725018 </v>
    <v>       0.95220046       0.06423995       0.49673665 </v>
    <v>       0.06794448       0.04589816       0.49660639 </v>
    <v>       0.04553963       0.93152838       0.50644213 </v>
    <v>       0.52549666       0.04651083       0.51625589 </v>
    <v>       0.39118791       0.98926397       0.52000651 </v>
    <v>       0.04690857       0.47137697       0.51911888 </v>
    <v>       0.99055384       0.60616293       0.51646398 </v>
    <v>       0.47232625       0.95162670       0.48534753 </v>
    <v>       0.60648255       0.00882643       0.48121529 </v>
    <v>       0.95301563       0.52482481       0.48355971 </v>
    <v>       0.00940992       0.39016095       0.48493161 </v>
    <v>       0.69081484       0.01969917       0.58779170 </v>
    <v>       0.78850662       0.00375626       0.59387066 </v>
    <v>       0.80116166       0.92468827       0.49515004 </v>
    <v>       0.86295440       0.83701000       0.50176629 </v>
    <v>       0.96294233       0.97344441       0.50796419 </v>
    <v>       0.03471612       0.02250446       0.49498902 </v>
    <v>       0.83773485       0.13453113       0.49134171 </v>
    <v>       0.92558911       0.19566654       0.48763979 </v>
    <v>       0.99837579       0.20661394       0.59066391 </v>
    <v>       0.01497180       0.30422374       0.58843655 </v>
    <v>       0.13472959       0.15871012       0.50527397 </v>
    <v>       0.19637394       0.07094909       0.51132761 </v>
    <v>       0.07203426       0.79992627       0.51115779 </v>
    <v>       0.15996163       0.86102100       0.50750299 </v>
    <v>       0.19187209       0.92921210       0.60735524 </v>
    <v>       0.28967813       0.91367724       0.61251138 </v>
    <v>       0.91865590       0.70485933       0.61179046 </v>
    <v>       0.93488481       0.80258046       0.61048877 </v>
    <v>       0.37512279       0.91224549       0.56068898 </v>
    <v>       0.91231026       0.62143312       0.55383200 </v>
    <v>       0.61905187       0.08108562       0.52876670 </v>
    <v>       0.08032887       0.37654314       0.53553709 </v>
    <v>       0.45230335       0.07514312       0.54816313 </v>
    <v>       0.37452345       0.01625979       0.55149473 </v>
    <v>       0.07539806       0.54482878       0.54988523 </v>
    <v>       0.01718408       0.62338973       0.54791608 </v>
    <v>       0.70871041       0.08090411       0.38810260 </v>
    <v>       0.80629652       0.06422399       0.39383823 </v>
    <v>       0.06942603       0.19156708       0.39580681 </v>
    <v>       0.08646722       0.28909526       0.39379792 </v>
    <v>       0.20887527       0.99438519       0.40956270 </v>
    <v>       0.30672831       0.97951263       0.41504365 </v>
    <v>       0.99321078       0.79110782       0.40872780 </v>
    <v>       0.97729709       0.69334455       0.41011802 </v>
    <v>       0.37914185       0.91680745       0.47270103 </v>
    <v>       0.91939994       0.61918567       0.46599889 </v>
    <v>       0.62341775       0.08568406       0.44076785 </v>
    <v>       0.08749683       0.37365358       0.44775303 </v>
    <v>       0.54544204       0.92301107       0.45321284 </v>
    <v>       0.62317952       0.98152648       0.45018463 </v>
    <v>       0.92436096       0.45133287       0.45325688 </v>
    <v>       0.98274896       0.37335770       0.45317514 </v>
   </varray>
  </structure>
  <varray name="forces" >
   <v>       0.00071660      -0.00241175       0.00099954 </v>
   <v>       0.00229208       0.00261431      -0.00070801 </v>
   <v>       0.00119487      -0.00307215      -0.00199101 </v>
   <v>       0.00084177       0.00034879      -0.00008679 </v>
   <v>      -0.00014673       0.00120951       0.00407909 </v>
   <v>       0.00159662       0.00060062      -0.00147597 </v>
   <v>       0.00082295       0.00339583      -0.00357827 </v>
   <v>      -0.00111716      -0.00019138       0.00195574 </v>
   <v>      -0.00122600      -0.00256811      -0.00071845 </v>
   <v>      -0.00537042      -0.00422710       0.00060094 </v>
   <v>       0.00149881       0.00263200       0.00082578 </v>
   <v>      -0.00235594       0.00307951       0.00018767 </v>
   <v>      -0.00013602      -0.00210880      -0.00077473 </v>
   <v>       0.00175940       0.00062068       0.00123281 </v>
   <v>      -0.00331091      -0.00045616       0.00027054 </v>
   <v>       0.00383962       0.00069460      -0.00147626 </v>
   <v>       0.00072973      -0.00437311      -0.00097583 </v>
   <v>      -0.00246512       0.00015679      -0.00011289 </v>
   <v>      -0.00198708       0.00137921       0.00203683 </v>
   <v>      -0.00265370      -0.00103245       0.00466550 </v>
   <v>      -0.00103842       0.00192237      -0.00062076 </v>
   <v>      -0.00274013       0.00219632      -0.00380726 </v>
   <v>      -0.00011874      -0.00235415      -0.00273114 </v>
   <v>       0.00117561      -0.00081236       0.00122322 </v>
   <v>       0.00476902      -0.00196588       0.00192624 </v>
   <v>       0.00214680       0.00157455      -0.00390429 </v>
   <v>       0.00079898       0.00145168      -0.00298953 </v>
   <v>      -0.00640353       0.00009748       0.00043834 </v>
   <v>      -0.00030583       0.00341697       0.00003078 </v>
   <v>      -0.00060504      -0.00284247      -0.00092412 </v>
   <v>       0.00017143       0.00004142      -0.00215934 </v>
   <v>       0.00149886       0.00132799      -0.00181685 </v>
   <v>       0.00199134      -0.00117663       0.00064916 </v>
   <v>      -0.00049017       0.00062994       0.00430554 </v>
   <v>      -0.00137955       0.00170201       0.00478818 </v>
   <v>      -0.00040248       0.00220358      -0.00292643 </v>
   <v>       0.00413576      -0.00302380      -0.00172462 </v>
   <v>      -0.00165616      -0.00186584       0.00118417 </v>
   <v>       0.00168344      -0.00349337       0.00053436 </v>
   <v>      -0.00126451       0.00087797      -0.00048859 </v>
   <v>      -0.00245192      -0.00365826      -0.00193628 </v>
   <v>      -0.00878704      -0.00049426      -0.00029102 </v>
   <v>       0.00056553       0.00539041       0.00149494 </v>
   <v>      -0.00205275       0.00235152      -0.00038914 </v>
   <v>       0.00171276      -0.00113932       0.00134341 </v>
   <v>       0.00003115       0.00091764       0.00077290 </v>
   <v>      -0.00040275      -0.00150240       0.00251022 </v>
   <v>       0.00018797      -0.00304266       0.00127631 </v>
   <v>      -0.00072868      -0.00138338       0.00216234 </v>
   <v>      -0.00194632       0.00141256       0.00122573 </v>
   <v>       0.00175340      -0.00005879      -0.00525536 </v>
   <v>      -0.00189558       0.00333399      -0.00217262 </v>
   <v>      -0.00130424      -0.00464386      -0.00106637 </v>
   <v>      -0.00488931      -0.00505431      -0.00215231 </v>
   <v>       0.00794655       0.00245199       0.00119038 </v>
   <v>      -0.00319735       0.00361122      -0.00054720 </v>
   <v>      -0.00192129       0.00294246      -0.00212485 </v>
   <v>      -0.00070017      -0.00302184       0.00297976 </v>
   <v>       0.00183855      -0.00463821      -0.00116287 </v>
   <v>      -0.00232213       0.00071223       0.00096762 </v>
   <v>       0.00688717       0.00714085      -0.00042731 </v>
   <v>       0.00317232      -0.00353990      -0.00088825 </v>
   <v>       0.00017496      -0.00374133      -0.00255797 </v>
   <v>       0.00285878      -0.00082124      -0.00186404 </v>
   <v>       0.00112280       0.00394119      -0.00188664 </v>
   <v>       0.00096608      -0.00140066       0.00115789 </v>
   <v>      -0.00006075      -0.00591441      -0.00024410 </v>
   <v>      -0.00128077      -0.00362056      -0.00154374 </v>
   <v>       0.00317722       0.00125542      -0.00050053 </v>
   <v>      -0.00012854       0.00140568      -0.00194024 </v>
   <v>      -0.00034825       0.00189675      -0.00009455 </v>
   <v>       0.00167307       0.00062203      -0.00192263 </v>
   <v>      -0.00193207      -0.00041893       0.00055603 </v>
   <v>       0.00057118      -0.00040385       0.00208446 </v>
   <v>       0.00390807       0.00253319       0.00118992 </v>
   <v>      -0.00113095       0.00176227       0.00037497 </v>
   <v>      -0.00040414      -0.00105919       0.00222826 </v>
   <v>      -0.00065486       0.00023642       0.00020449 </v>
   <v>       0.00013557      -0.00100406       0.00013676 </v>
   <v>       0.00159599       0.00003841       0.00030147 </v>
   <v>       0.00079986      -0.00049992      -0.00004924 </v>
   <v>       0.00199363      -0.00012253      -0.00024352 </v>
   <v>      -0.00095952       0.00023071       0.00204917 </v>
   <v>      -0.00139575       0.00066917      -0.00057781 </v>
   <v>      -0.00266082      -0.00046396      -0.00303752 </v>
   <v>      -0.00321334       0.00119961      -0.00219908 </v>
   <v>      -0.00201520       0.00352801      -0.00086964 </v>
   <v>       0.00224194       0.00216491       0.00157007 </v>
   <v>      -0.00190207       0.00147790      -0.00027021 </v>
   <v>       0.00034753       0.00065730       0.00289803 </v>
   <v>       0.00340978       0.00043973       0.00240790 </v>
   <v>       0.00177981       0.00226488      -0.00102757 </v>
   <v>       0.00114081      -0.00180296      -0.00061764 </v>
   <v>      -0.00137950      -0.00050245       0.00093492 </v>
   <v>      -0.00011155      -0.00042166       0.00270021 </v>
   <v>      -0.00123902      -0.00078606       0.00205053 </v>
   <v>       0.00124659       0.00046062      -0.00034094 </v>
   <v>       0.00027114       0.00060708       0.00034364 </v>
   <v>       0.00011007       0.00131725      -0.00157408 </v>
   <v>       0.00134102      -0.00144614      -0.00020012 </v>
   <v>       0.00142867      -0.00048187       0.00072740 </v>
   <v>       0.00230113      -0.00115073      -0.00009255 </v>
   <v>       0.00207287       0.00048746       0.00114384 </v>
   <v>       0.00129064       0.00062431       0.00031946 </v>
   <v>       0.00029471       0.00021233       0.00023299 </v>
   <v>      -0.00047637      -0.00073281      -0.00090336 </v>
   <v>      -0.00245217       0.00532091       0.00582804 </v>
   <v>      -0.00006078      -0.00184603       0.00089355 </v>
   <v>      -0.00101331      -0.00027076      -0.00038933 </v>
   <v>      -0.00142012      -0.00072778      -0.00084028 </v>
  </varray>
  <varray name="stress" >
   <v>      -0.00874833       0.00085642      -0.00328794 </v>
   <v>       0.00085642      -0.01389022       0.00461249 </v>
   <v>      -0.00328795       0.00461250      -0.17703336 </v>
  </varray>
  <energy>
   <i name="e_fr_energy">   -758.42782173 </i>
   <i name="e_wo_entrp">   -758.42782173 </i>
   <i name="e_0_energy">     -0.00000000 </i>
  </energy>
  <time name="totalsc"> 1648.79 1664.34</time>
  <eigenvalues>
   <array>
    <dimension dim="1">band</dimension>
    <dimension dim="2">kpoint</dimension>
    <dimension dim="3">spin</dimension>
    <field>eigene</field>
    <field>occ</field>
    <set>
     <set comment="spin 1">
      <set comment="kpoint 1">
       <r>  -24.3180    1.0000 </r>
       <r>  -24.2985    1.0000 </r>
       <r>  -24.2831    1.0000 </r>
       <r>  -24.2813    1.0000 </r>
       <r>  -23.3576    1.0000 </r>
       <r>  -23.3420    1.0000 </r>
       <r>  -23.0651    1.0000 </r>
       <r>  -22.9972    1.0000 </r>
       <r>  -22.3606    1.0000 </r>
       <r>  -22.3436    1.0000 </r>
       <r>  -21.6228    1.0000 </r>
       <r>  -21.6061    1.0000 </r>
       <r>  -21.2567    1.0000 </r>
       <r>  -21.1791    1.0000 </r>
       <r>  -21.1689    1.0000 </r>
       <r>  -21.1302    1.0000 </r>
       <r>  -20.1781    1.0000 </r>
       <r>  -19.8849    1.0000 </r>
       <r>  -19.8126    1.0000 </r>
       <r>  -19.5225    1.0000 </r>
       <r>  -19.1854    1.0000 </r>
       <r>  -19.0724    1.0000 </r>
       <r>  -18.8419    1.0000 </r>
       <r>  -18.7057    1.0000 </r>
       <r>  -18.5568    1.0000 </r>
       <r>  -18.2989    1.0000 </r>
       <r>  -18.2584    1.0000 </r>
       <r>  -18.1940    1.0000 </r>
       <r>  -18.1808    1.0000 </r>
       <r>  -18.1620    1.0000 </r>
       <r>  -18.1458    1.0000 </r>
       <r>  -17.8879    1.0000 </r>
       <r>  -17.7149    1.0000 </r>
       <r>  -17.6389    1.0000 </r>
       <r>  -17.4385    1.0000 </r>
       <r>  -16.8459    1.0000 </r>
       <r>  -16.4901    1.0000 </r>
       <r>  -16.4345    1.0000 </r>
       <r>  -16.2772    1.0000 </r>
       <r>  -15.9341    1.0000 </r>
       <r>  -15.8650    1.0000 </r>
       <r>  -15.6757    1.0000 </r>
       <r>  -15.6672    1.0000 </r>
       <r>  -14.9544    1.0000 </r>
       <r>  -14.7881    1.0000 </r>
       <r>  -14.7640    1.0000 </r>
       <r>  -14.7343    1.0000 </r>
       <r>  -14.7196    1.0000 </r>
       <r>  -14.6776    1.0000 </r>
       <r>  -14.4014    1.0000 </r>
       <r>  -14.3474    1.0000 </r>
       <r>  -14.3008    1.0000 </r>
       <r>  -14.2465    1.0000 </r>
       <r>  -14.2355    1.0000 </r>
       <r>  -14.1971    1.0000 </r>
       <r>  -13.9412    1.0000 </r>
       <r>  -13.8017    1.0000 </r>
       <r>  -13.6825    1.0000 </r>
       <r>  -13.3982    1.0000 </r>
       <r>  -13.1863    1.0000 </r>
       <r>  -13.1682    1.0000 </r>
       <r>  -13.1055    1.0000 </r>
       <r>  -12.9941    1.0000 </r>
       <r>  -12.9221    1.0000 </r>
       <r>  -12.8954    1.0000 </r>
       <r>  -12.4743    1.0000 </r>
       <r>  -12.3429    1.0000 </r>
       <r>  -12.2799    1.0000 </r>
       <r>  -12.1973    1.0000 </r>
       <r>  -12.1879    1.0000 </r>
       <r>  -11.9462    1.0000 </r>
       <r>  -11.9415    1.0000 </r>
       <r>  -11.5783    1.0000 </r>
       <r>  -11.5342    1.0000 </r>
       <r>  -11.4495    1.0000 </r>
       <r>  -11.4120    1.0000 </r>
       <r>  -11.3859    1.0000 </r>
       <r>  -11.3061    1.0000 </r>
       <r>  -11.1417    1.0000 </r>
       <r>  -10.9590    1.0000 </r>
       <r>  -10.7500    1.0000 </r>
       <r>  -10.6840    1.0000 </r>
       <r>  -10.6379    1.0000 </r>
       <r>  -10.6172    1.0000 </r>
       <r>  -10.6024    1.0000 </r>
       <r>  -10.5137    1.0000 </r>
       <r>  -10.4873    1.0000 </r>
       <r>  -10.4476    1.0000 </r>
       <r>  -10.4215    1.0000 </r>
       <r>  -10.4120    1.0000 </r>
       <r>  -10.4034    1.0000 </r>
       <r>  -10.3418    1.0000 </r>
       <r>  -10.2211    1.0000 </r>
       <r>  -10.1814    1.0000 </r>
       <r>  -10.1629    1.0000 </r>
       <r>  -10.1579    1.0000 </r>
       <r>   -9.9633    1.0000 </r>
       <r>   -9.9557    1.0000 </r>
       <r>   -9.9216    1.0000 </r>
       <r>   -9.8845    1.0000 </r>
       <r>   -9.8725    1.0000 </r>
       <r>   -9.8649    1.0000 </r>
       <r>   -9.8337    1.0000 </r>
       <r>   -9.7843    1.0000 </r>
       <r>   -9.7377    1.0000 </r>
       <r>   -9.7281    1.0000 </r>
       <r>   -9.6615    1.0000 </r>
       <r>   -9.4679    1.0000 </r>
       <r>   -9.4339    1.0000 </r>
       <r>   -9.3066    1.0000 </r>
       <r>   -9.2866    1.0000 </r>
       <r>   -9.2644    1.0000 </r>
       <r>   -9.2130    1.0000 </r>
       <r>   -9.1313    1.0000 </r>
       <r>   -8.9768    1.0000 </r>
       <r>   -8.9733    1.0000 </r>
       <r>   -8.8853    1.0000 </r>
       <r>   -8.8160    1.0000 </r>
       <r>   -8.7082    1.0000 </r>
       <r>   -8.6762    1.0000 </r>
       <r>   -8.5715    1.0000 </r>
       <r>   -8.5231    1.0000 </r>
       <r>   -8.2753    1.0000 </r>
       <r>   -8.2446    1.0000 </r>
       <r>   -8.1521    1.0000 </r>
       <r>   -8.1051    1.0000 </r>
       <r>   -8.0201    1.0000 </r>
       <r>   -7.9845    1.0000 </r>
       <r>   -7.9698    1.0000 </r>
       <r>   -7.9300    1.0000 </r>
       <r>   -7.8723    1.0000 </r>
       <r>   -7.8134    1.0000 </r>
       <r>   -7.7201    1.0000 </r>
       <r>   -7.7013    1.0000 </r>
       <r>   -7.4331    1.0000 </r>
       <r>   -7.1354    1.0000 </r>
       <r>   -7.1164    1.0000 </r>
       <r>   -6.7494    1.0000 </r>
       <r>   -6.6059    1.0000 </r>
       <r>   -6.5052    1.0000 </r>
       <r>   -6.4877    1.0000 </r>
       <r>   -6.2312    1.0000 </r>
       <r>   -6.1996    1.0000 </r>
       <r>   -6.1909    1.0000 </r>
       <r>   -6.1391    1.0000 </r>
       <r>   -6.1105    1.0000 </r>
       <r>   -6.0895    1.0000 </r>
       <r>   -6.0459    1.0000 </r>
       <r>   -6.0249    1.0000 </r>
       <r>   -5.8912    1.0000 </r>
       <r>   -5.8723    1.0000 </r>
       <r>   -5.8684    1.0000 </r>
       <r>   -5.8505    1.0000 </r>
       <r>   -5.7854    1.0000 </r>
       <r>   -5.7219    1.0000 </r>
       <r>   -5.4770    1.0000 </r>
       <r>   -5.3910    1.0000 </r>
       <r>   -5.2033    1.0000 </r>
       <r>   -5.1885    1.0000 </r>
       <r>   -4.8095    1.0000 </r>
       <r>   -4.4297    1.0000 </r>
       <r>   -4.0658    1.0000 </r>
       <r>   -4.0539    1.0000 </r>
       <r>   -2.6908    0.0000 </r>
       <r>   -2.6858    0.0000 </r>
       <r>   -1.6239    0.0000 </r>
       <r>   -1.6039    0.0000 </r>
       <r>   -1.4602    0.0000 </r>
       <r>   -1.1200    0.0000 </r>
       <r>   -1.1174    0.0000 </r>
       <r>   -1.0933    0.0000 </r>
       <r>   -1.0594    0.0000 </r>
       <r>   -1.0142    0.0000 </r>
       <r>   -1.0006    0.0000 </r>
       <r>   -0.9624    0.0000 </r>
       <r>   -0.9334    0.0000 </r>
       <r>   -0.2988    0.0000 </r>
       <r>   -0.2676    0.0000 </r>
       <r>   -0.2526    0.0000 </r>
       <r>   -0.1723    0.0000 </r>
       <r>   -0.1700    0.0000 </r>
       <r>   -0.1428    0.0000 </r>
       <r>    0.1190    0.0000 </r>
       <r>    0.1281    0.0000 </r>
       <r>    0.1695    0.0000 </r>
       <r>    0.1865    0.0000 </r>
       <r>    0.2341    0.0000 </r>
       <r>    0.3063    0.0000 </r>
       <r>    0.3388    0.0000 </r>
       <r>    0.3483    0.0000 </r>
       <r>    0.3770    0.0000 </r>
       <r>    0.4164    0.0000 </r>
       <r>    0.5328    0.0000 </r>
       <r>    0.5508    0.0000 </r>
       <r>    0.5961    0.0000 </r>
       <r>    0.5984    0.0000 </r>
       <r>    0.6003    0.0000 </r>
       <r>    0.6602    0.0000 </r>
       <r>    0.6767    0.0000 </r>
       <r>    0.7067    0.0000 </r>
       <r>    0.7379    0.0000 </r>
       <r>    0.7555    0.0000 </r>
       <r>    0.7944    0.0000 </r>
       <r>    0.7951    0.0000 </r>
       <r>    0.8402    0.0000 </r>
       <r>    0.8649    0.0000 </r>
       <r>    0.8693    0.0000 </r>
       <r>    0.8857    0.0000 </r>
       <r>    0.9321    0.0000 </r>
       <r>    0.9627    0.0000 </r>
       <r>    0.9635    0.0000 </r>
       <r>    1.0080    0.0000 </r>
       <r>    1.0319    0.0000 </r>
       <r>    1.0437    0.0000 </r>
       <r>    1.0587    0.0000 </r>
       <r>    1.0706    0.0000 </r>
       <r>    1.0771    0.0000 </r>
       <r>    1.0841    0.0000 </r>
       <r>    1.0909    0.0000 </r>
       <r>    1.1034    0.0000 </r>
       <r>    1.1514    0.0000 </r>
       <r>    1.1713    0.0000 </r>
       <r>    1.1871    0.0000 </r>
       <r>    1.2155    0.0000 </r>
      </set>
      <set comment="kpoint 2">
       <r>  -24.3180    1.0000 </r>
       <r>  -24.2985    1.0000 </r>
       <r>  -24.2831    1.0000 </r>
       <r>  -24.2813    1.0000 </r>
       <r>  -23.3576    1.0000 </r>
       <r>  -23.3420    1.0000 </r>
       <r>  -23.0651    1.0000 </r>
       <r>  -22.9972    1.0000 </r>
       <r>  -22.3606    1.0000 </r>
       <r>  -22.3436    1.0000 </r>
       <r>  -21.6228    1.0000 </r>
       <r>  -21.6061    1.0000 </r>
       <r>  -21.2567    1.0000 </r>
       <r>  -21.1791    1.0000 </r>
       <r>  -21.1688    1.0000 </r>
       <r>  -21.1302    1.0000 </r>
       <r>  -20.1782    1.0000 </r>
       <r>  -19.8847    1.0000 </r>
       <r>  -19.8124    1.0000 </r>
       <r>  -19.5227    1.0000 </r>
       <r>  -19.1854    1.0000 </r>
       <r>  -19.0727    1.0000 </r>
       <r>  -18.8416    1.0000 </r>
       <r>  -18.7060    1.0000 </r>
       <r>  -18.5561    1.0000 </r>
       <r>  -18.2987    1.0000 </r>
       <r>  -18.2584    1.0000 </r>
       <r>  -18.1940    1.0000 </r>
       <r>  -18.1808    1.0000 </r>
       <r>  -18.1620    1.0000 </r>
       <r>  -18.1458    1.0000 </r>
       <r>  -17.8903    1.0000 </r>
       <r>  -17.7135    1.0000 </r>
       <r>  -17.6382    1.0000 </r>
       <r>  -17.4383    1.0000 </r>
       <r>  -16.8461    1.0000 </r>
       <r>  -16.4948    1.0000 </r>
       <r>  -16.4304    1.0000 </r>
       <r>  -16.2764    1.0000 </r>
       <r>  -15.9343    1.0000 </r>
       <r>  -15.8650    1.0000 </r>
       <r>  -15.6760    1.0000 </r>
       <r>  -15.6673    1.0000 </r>
       <r>  -14.9539    1.0000 </r>
       <r>  -14.7881    1.0000 </r>
       <r>  -14.7641    1.0000 </r>
       <r>  -14.7343    1.0000 </r>
       <r>  -14.7196    1.0000 </r>
       <r>  -14.6775    1.0000 </r>
       <r>  -14.4015    1.0000 </r>
       <r>  -14.3481    1.0000 </r>
       <r>  -14.3012    1.0000 </r>
       <r>  -14.2490    1.0000 </r>
       <r>  -14.2320    1.0000 </r>
       <r>  -14.1970    1.0000 </r>
       <r>  -13.9415    1.0000 </r>
       <r>  -13.8017    1.0000 </r>
       <r>  -13.6824    1.0000 </r>
       <r>  -13.3982    1.0000 </r>
       <r>  -13.1863    1.0000 </r>
       <r>  -13.1682    1.0000 </r>
       <r>  -13.1056    1.0000 </r>
       <r>  -12.9941    1.0000 </r>
       <r>  -12.9221    1.0000 </r>
       <r>  -12.8955    1.0000 </r>
       <r>  -12.4743    1.0000 </r>
       <r>  -12.3428    1.0000 </r>
       <r>  -12.2800    1.0000 </r>
       <r>  -12.1987    1.0000 </r>
       <r>  -12.1864    1.0000 </r>
       <r>  -11.9462    1.0000 </r>
       <r>  -11.9415    1.0000 </r>
       <r>  -11.5790    1.0000 </r>
       <r>  -11.5335    1.0000 </r>
       <r>  -11.4494    1.0000 </r>
       <r>  -11.4119    1.0000 </r>
       <r>  -11.3859    1.0000 </r>
       <r>  -11.3060    1.0000 </r>
       <r>  -11.1425    1.0000 </r>
       <r>  -10.9584    1.0000 </r>
       <r>  -10.7500    1.0000 </r>
       <r>  -10.6841    1.0000 </r>
       <r>  -10.6379    1.0000 </r>
       <r>  -10.6172    1.0000 </r>
       <r>  -10.6024    1.0000 </r>
       <r>  -10.5136    1.0000 </r>
       <r>  -10.4873    1.0000 </r>
       <r>  -10.4477    1.0000 </r>
       <r>  -10.4216    1.0000 </r>
       <r>  -10.4120    1.0000 </r>
       <r>  -10.4034    1.0000 </r>
       <r>  -10.3417    1.0000 </r>
       <r>  -10.2210    1.0000 </r>
       <r>  -10.1815    1.0000 </r>
       <r>  -10.1640    1.0000 </r>
       <r>  -10.1566    1.0000 </r>
       <r>   -9.9632    1.0000 </r>
       <r>   -9.9557    1.0000 </r>
       <r>   -9.9215    1.0000 </r>
       <r>   -9.8845    1.0000 </r>
       <r>   -9.8726    1.0000 </r>
       <r>   -9.8647    1.0000 </r>
       <r>   -9.8338    1.0000 </r>
       <r>   -9.7846    1.0000 </r>
       <r>   -9.7378    1.0000 </r>
       <r>   -9.7281    1.0000 </r>
       <r>   -9.6609    1.0000 </r>
       <r>   -9.4681    1.0000 </r>
       <r>   -9.4340    1.0000 </r>
       <r>   -9.3074    1.0000 </r>
       <r>   -9.2868    1.0000 </r>
       <r>   -9.2635    1.0000 </r>
       <r>   -9.2128    1.0000 </r>
       <r>   -9.1313    1.0000 </r>
       <r>   -8.9772    1.0000 </r>
       <r>   -8.9729    1.0000 </r>
       <r>   -8.8852    1.0000 </r>
       <r>   -8.8160    1.0000 </r>
       <r>   -8.7083    1.0000 </r>
       <r>   -8.6762    1.0000 </r>
       <r>   -8.5715    1.0000 </r>
       <r>   -8.5231    1.0000 </r>
       <r>   -8.2754    1.0000 </r>
       <r>   -8.2445    1.0000 </r>
       <r>   -8.1521    1.0000 </r>
       <r>   -8.1054    1.0000 </r>
       <r>   -8.0202    1.0000 </r>
       <r>   -7.9853    1.0000 </r>
       <r>   -7.9686    1.0000 </r>
       <r>   -7.9299    1.0000 </r>
       <r>   -7.8724    1.0000 </r>
       <r>   -7.8134    1.0000 </r>
       <r>   -7.7202    1.0000 </r>
       <r>   -7.7013    1.0000 </r>
       <r>   -7.4331    1.0000 </r>
       <r>   -7.1354    1.0000 </r>
       <r>   -7.1164    1.0000 </r>
       <r>   -6.7494    1.0000 </r>
       <r>   -6.6060    1.0000 </r>
       <r>   -6.5050    1.0000 </r>
       <r>   -6.4877    1.0000 </r>
       <r>   -6.2312    1.0000 </r>
       <r>   -6.2001    1.0000 </r>
       <r>   -6.1903    1.0000 </r>
       <r>   -6.1391    1.0000 </r>
       <r>   -6.1103    1.0000 </r>
       <r>   -6.0895    1.0000 </r>
       <r>   -6.0459    1.0000 </r>
       <r>   -6.0248    1.0000 </r>
       <r>   -5.8914    1.0000 </r>
       <r>   -5.8733    1.0000 </r>
       <r>   -5.8679    1.0000 </r>
       <r>   -5.8508    1.0000 </r>
       <r>   -5.7846    1.0000 </r>
       <r>   -5.7217    1.0000 </r>
       <r>   -5.4770    1.0000 </r>
       <r>   -5.3910    1.0000 </r>
       <r>   -5.2034    1.0000 </r>
       <r>   -5.1885    1.0000 </r>
       <r>   -4.8095    1.0000 </r>
       <r>   -4.4297    1.0000 </r>
       <r>   -4.0658    1.0000 </r>
       <r>   -4.0539    1.0000 </r>
       <r>   -2.6909    0.0000 </r>
       <r>   -2.6858    0.0000 </r>
       <r>   -1.6239    0.0000 </r>
       <r>   -1.6039    0.0000 </r>
       <r>   -1.4602    0.0000 </r>
       <r>   -1.1206    0.0000 </r>
       <r>   -1.1169    0.0000 </r>
       <r>   -1.0931    0.0000 </r>
       <r>   -1.0594    0.0000 </r>
       <r>   -1.0142    0.0000 </r>
       <r>   -1.0006    0.0000 </r>
       <r>   -0.9625    0.0000 </r>
       <r>   -0.9334    0.0000 </r>
       <r>   -0.2987    0.0000 </r>
       <r>   -0.2676    0.0000 </r>
       <r>   -0.2526    0.0000 </r>
       <r>   -0.1754    0.0000 </r>
       <r>   -0.1670    0.0000 </r>
       <r>   -0.1427    0.0000 </r>
       <r>    0.1189    0.0000 </r>
       <r>    0.1282    0.0000 </r>
       <r>    0.1688    0.0000 </r>
       <r>    0.1872    0.0000 </r>
       <r>    0.2344    0.0000 </r>
       <r>    0.3063    0.0000 </r>
       <r>    0.3378    0.0000 </r>
       <r>    0.3494    0.0000 </r>
       <r>    0.3771    0.0000 </r>
       <r>    0.4161    0.0000 </r>
       <r>    0.5328    0.0000 </r>
       <r>    0.5511    0.0000 </r>
       <r>    0.5896    0.0000 </r>
       <r>    0.5992    0.0000 </r>
       <r>    0.6053    0.0000 </r>
       <r>    0.6602    0.0000 </r>
       <r>    0.6767    0.0000 </r>
       <r>    0.7066    0.0000 </r>
       <r>    0.7377    0.0000 </r>
       <r>    0.7566    0.0000 </r>
       <r>    0.7909    0.0000 </r>
       <r>    0.7990    0.0000 </r>
       <r>    0.8392    0.0000 </r>
       <r>    0.8641    0.0000 </r>
       <r>    0.8709    0.0000 </r>
       <r>    0.8857    0.0000 </r>
       <r>    0.9319    0.0000 </r>
       <r>    0.9622    0.0000 </r>
       <r>    0.9638    0.0000 </r>
       <r>    1.0084    0.0000 </r>
       <r>    1.0319    0.0000 </r>
       <r>    1.0414    0.0000 </r>
       <r>    1.0562    0.0000 </r>
       <r>    1.0672    0.0000 </r>
       <r>    1.0765    0.0000 </r>
       <r>    1.0857    0.0000 </r>
       <r>    1.0948    0.0000 </r>
       <r>    1.1070    0.0000 </r>
       <r>    1.1520    0.0000 </r>
       <r>    1.1700    0.0000 </r>
       <r>    1.1876    0.0000 </r>
       <r>    1.2175    0.0000 </r>
      </set>
      <set comment="kpoint 3">
       <r>  -24.3180    1.0000 </r>
       <r>  -24.2985    1.0000 </r>
       <r>  -24.2831    1.0000 </r>
       <r>  -24.2813    1.0000 </r>
       <r>  -23.3576    1.0000 </r>
       <r>  -23.3420    1.0000 </r>
       <r>  -23.0651    1.0000 </r>
       <r>  -22.9972    1.0000 </r>
       <r>  -22.3606    1.0000 </r>
       <r>  -22.3436    1.0000 </r>
       <r>  -21.6228    1.0000 </r>
       <r>  -21.6061    1.0000 </r>
       <r>  -21.2567    1.0000 </r>
       <r>  -21.1790    1.0000 </r>
       <r>  -21.1688    1.0000 </r>
       <r>  -21.1302    1.0000 </r>
       <r>  -20.1786    1.0000 </r>
       <r>  -19.8843    1.0000 </r>
       <r>  -19.8119    1.0000 </r>
       <r>  -19.5234    1.0000 </r>
[...]
       <r>   -20.9953     0.0000    32.0000 </r>
       <r>   -20.9013     0.0000    32.0000 </r>
       <r>   -20.8074     0.0000    32.0000 </r>
       <r>   -20.7134     0.0000    32.0000 </r>
       <r>   -20.6194     0.0000    32.0000 </r>
       <r>   -20.5255     0.0000    32.0000 </r>
       <r>   -20.4315     0.0000    32.0000 </r>
       <r>   -20.3376     0.0000    32.0000 </r>
       <r>   -20.2436     0.0000    32.0000 </r>
       <r>   -20.1496    21.2858    34.0000 </r>
       <r>   -20.0557     0.0000    34.0000 </r>
       <r>   -19.9617     0.0000    34.0000 </r>
       <r>   -19.8678     9.9406    34.9340 </r>
       <r>   -19.7738    19.7550    37.2578 </r>
       <r>   -19.6799     2.8157    38.0000 </r>
       <r>   -19.5859     4.2577    38.4000 </r>
       <r>   -19.4919    14.5256    40.0000 </r>
       <r>   -19.3980     0.0000    40.0000 </r>
       <r>   -19.3040     0.0000    40.0000 </r>
       <r>   -19.2101     0.0053    40.0005 </r>
       <r>   -19.1161    24.0998    42.2649 </r>
       <r>   -19.0221    10.2606    44.0000 </r>
       <r>   -18.9282     0.0000    44.0000 </r>
       <r>   -18.8342    13.6696    45.2844 </r>
       <r>   -18.7403     9.0708    46.3533 </r>
       <r>   -18.6463     8.1696    47.2684 </r>
       <r>   -18.5523    12.0822    48.4689 </r>
       <r>   -18.4584     8.4042    49.4232 </r>
       <r>   -18.3644     3.5401    50.0000 </r>
       <r>   -18.2705    11.5740    51.0875 </r>
       <r>   -18.1765    52.7977    58.1284 </r>
       <r>   -18.0825    42.9398    63.2145 </r>
       <r>   -17.9886     2.5266    63.5041 </r>
       <r>   -17.8946     3.7054    63.8817 </r>
       <r>   -17.8007     0.5753    64.0541 </r>
       <r>   -17.7067    10.0167    65.2424 </r>
       <r>   -17.6128     9.8162    66.3227 </r>
       <r>   -17.5188     6.5696    67.0175 </r>
       <r>   -17.4248     9.1882    67.9308 </r>
       <r>   -17.3309    14.2640    69.6428 </r>
       <r>   -17.2369     3.1869    70.0000 </r>
       <r>   -17.1430     0.0000    70.0000 </r>
       <r>   -17.0490     0.0000    70.0000 </r>
       <r>   -16.9550     0.1921    70.0180 </r>
       <r>   -16.8611    13.7792    71.5286 </r>
       <r>   -16.7671     6.6460    72.4608 </r>
       <r>   -16.6732     4.6510    72.9705 </r>
       <r>   -16.5792     3.9278    73.5359 </r>
       <r>   -16.4852     4.3549    73.9766 </r>
       <r>   -16.3913     4.1667    74.3915 </r>
       <r>   -16.2973     9.2700    75.3386 </r>
       <r>   -16.2034    11.8534    76.5142 </r>
       <r>   -16.1094     2.9665    76.8787 </r>
       <r>   -16.0154    15.0761    78.3506 </r>
       <r>   -15.9215    14.0649    80.0564 </r>
       <r>   -15.8275    18.0899    82.0000 </r>
       <r>   -15.7336     8.6630    82.8140 </r>
       <r>   -15.6396    27.9947    86.0000 </r>
       <r>   -15.5457     0.0000    86.0000 </r>
       <r>   -15.4517     0.0000    86.0000 </r>
       <r>   -15.3577     0.0000    86.0000 </r>
       <r>   -15.2638     0.0000    86.0000 </r>
       <r>   -15.1698     0.0000    86.0000 </r>
       <r>   -15.0759     0.0000    86.0000 </r>
       <r>   -14.9819     0.0001    86.0000 </r>
       <r>   -14.8879     9.1228    86.8572 </r>
       <r>   -14.7940    25.9775    89.4430 </r>
       <r>   -14.7000    50.7668    95.4454 </r>
       <r>   -14.6061    26.1389    98.0906 </r>
       <r>   -14.5121     4.0147    98.6106 </r>
       <r>   -14.4181     9.5262    99.5951 </r>
       <r>   -14.3242    14.9978   102.0142 </r>
       <r>   -14.2302    32.1229   105.3553 </r>
       <r>   -14.1363    34.1352   108.9078 </r>
       <r>   -14.0423     9.9345   110.0023 </r>
       <r>   -13.9484    17.9561   111.6894 </r>
       <r>   -13.8544     0.0000   112.0000 </r>
       <r>   -13.7604    21.2859   114.0000 </r>
       <r>   -13.6665     9.1691   114.8615 </r>
       <r>   -13.5725     4.9330   116.0000 </r>
       <r>   -13.4786     0.0000   116.0000 </r>
       <r>   -13.3846    21.1760   117.9897 </r>
       <r>   -13.2906     0.0000   118.0000 </r>
       <r>   -13.1967     0.6381   118.0600 </r>
       <r>   -13.1027    52.8792   123.8184 </r>
       <r>   -13.0088     0.0853   124.0080 </r>
       <r>   -12.9148    38.7964   127.6533 </r>
       <r>   -12.8208    15.4647   130.0000 </r>
       <r>   -12.7269     0.0000   130.0000 </r>
       <r>   -12.6329     0.0000   130.0000 </r>
       <r>   -12.5390     0.0000   130.0000 </r>
       <r>   -12.4450    21.2856   132.0000 </r>
       <r>   -12.3510     0.6164   132.0579 </r>
       <r>   -12.2571    42.4668   136.6274 </r>
       <r>   -12.1631    16.6110   138.4284 </r>
       <r>   -12.0692    14.1645   140.0000 </r>
       <r>   -11.9752     0.0052   140.0005 </r>
       <r>   -11.8813    42.5666   144.0000 </r>
       <r>   -11.7873     0.0000   144.0000 </r>
       <r>   -11.6933     0.0000   144.0000 </r>
       <r>   -11.5994    16.6056   145.5602 </r>
       <r>   -11.5054     9.5702   146.6671 </r>
       <r>   -11.4115    34.3165   150.5277 </r>
       <r>   -11.3175    31.6242   154.3114 </r>
       <r>   -11.2235    19.9975   157.0868 </r>
       <r>   -11.1296     8.0870   157.9941 </r>
       <r>   -11.0356     0.0000   158.0000 </r>
       <r>   -10.9417     3.7883   158.3559 </r>
       <r>   -10.8477    13.8302   159.8001 </r>
       <r>   -10.7537     8.3145   160.7812 </r>
       <r>   -10.6598    27.0037   164.1736 </r>
       <r>   -10.5658    54.9334   170.0000 </r>
       <r>   -10.4719    52.6451   174.9465 </r>
       <r>   -10.3779    69.1813   181.9687 </r>
       <r>   -10.2840    21.2859   184.0000 </r>
       <r>   -10.1900    39.8248   187.7419 </r>
       <r>   -10.0960    32.4178   191.8489 </r>
       <r>   -10.0021     0.0000   192.0000 </r>
       <r>    -9.9081    49.9249   196.6909 </r>
       <r>    -9.8142   107.0068   207.1344 </r>
       <r>    -9.7202    33.7765   210.6749 </r>
       <r>    -9.6262    11.5254   212.0832 </r>
       <r>    -9.5323    25.8407   214.7288 </r>
       <r>    -9.4383    33.1430   218.1154 </r>
       <r>    -9.3444     9.1002   219.4558 </r>
       <r>    -9.2504    28.4856   222.2769 </r>
       <r>    -9.1564    37.2632   226.0024 </r>
       <r>    -9.0625    21.2597   228.0000 </r>
       <r>    -8.9685    25.8506   230.4289 </r>
       <r>    -8.8746     6.5768   232.6180 </r>
       <r>    -8.7806    30.3579   236.0000 </r>
       <r>    -8.6866    24.9926   238.3483 </r>
       <r>    -8.5927     0.1283   240.0121 </r>
       <r>    -8.4987    41.8419   243.9435 </r>
       <r>    -8.4048     0.0000   244.0000 </r>
       <r>    -8.3108     0.0002   244.0000 </r>
       <r>    -8.2169    31.5650   246.9658 </r>
       <r>    -8.1229    42.1461   251.4615 </r>
       <r>    -8.0289    16.7519   253.3440 </r>
       <r>    -7.9350    26.8735   256.5250 </r>
       <r>    -7.8410    43.2464   262.0007 </r>
       <r>    -7.7471    21.5474   264.0253 </r>
       <r>    -7.6531    37.8397   268.0000 </r>
       <r>    -7.5591     0.0000   268.0000 </r>
       <r>    -7.4652     0.0001   268.0000 </r>
       <r>    -7.3712    21.2858   270.0000 </r>
       <r>    -7.2773     0.0000   270.0000 </r>
       <r>    -7.1833     0.0000   270.0000 </r>
       <r>    -7.0893    42.5702   273.9999 </r>
       <r>    -6.9954     0.0000   274.0000 </r>
       <r>    -6.9014     0.0000   274.0000 </r>
       <r>    -6.8075     0.0000   274.0000 </r>
       <r>    -6.7135    21.2859   276.0000 </r>
       <r>    -6.6195     7.5149   276.7061 </r>
       <r>    -6.5256     0.0060   278.0006 </r>
       <r>    -6.4316    42.5658   282.0000 </r>
       <r>    -6.3377     0.0000   282.0000 </r>
       <r>    -6.2437     0.3331   282.0313 </r>
       <r>    -6.1498    57.6286   288.0259 </r>
       <r>    -6.0558    69.2359   295.1480 </r>
       <r>    -5.9618    32.6171   299.0647 </r>
       <r>    -5.8679    32.4176   302.5146 </r>
       <r>    -5.7739     9.2003   306.2747 </r>
       <r>    -5.6800    33.9208   309.6551 </r>
       <r>    -5.5860     0.0000   310.0000 </r>
       <r>    -5.4920     2.7533   310.2587 </r>
       <r>    -5.3981     6.3354   312.2681 </r>
       <r>    -5.3041     0.0000   314.0000 </r>
       <r>    -5.2102    12.3980   315.1649 </r>
       <r>    -5.1162    21.1773   318.0000 </r>
       <r>    -5.0222     0.0000   318.0000 </r>
       <r>    -4.9283     0.0000   318.0000 </r>
       <r>    -4.8343     0.0053   318.0005 </r>
       <r>    -4.7404    21.2806   320.0000 </r>
       <r>    -4.6464     0.0000   320.0000 </r>
       <r>    -4.5525     0.0000   320.0000 </r>
       <r>    -4.4585     0.0002   320.0000 </r>
       <r>    -4.3645    21.2856   322.0000 </r>
       <r>    -4.2706     0.0000   322.0000 </r>
       <r>    -4.1766     0.0000   322.0000 </r>
       <r>    -4.0827     0.1226   322.0115 </r>
       <r>    -3.9887    42.4491   326.0000 </r>
       <r>    -3.8947     0.0000   326.0000 </r>
       <r>    -3.8008     0.0000   326.0000 </r>
       <r>    -3.7068     0.0000   326.0000 </r>
       <r>    -3.6129     0.0000   326.0000 </r>
       <r>    -3.5189     0.0000   326.0000 </r>
       <r>    -3.4249     0.0000   326.0000 </r>
       <r>    -3.3310     0.0000   326.0000 </r>
       <r>    -3.2370     0.0000   326.0000 </r>
       <r>    -3.1431     0.0000   326.0000 </r>
       <r>    -3.0491     0.0000   326.0000 </r>
       <r>    -2.9551     0.0000   326.0000 </r>
       <r>    -2.8612     0.0000   326.0000 </r>
       <r>    -2.7672     0.0000   326.0000 </r>
       <r>    -2.6733    41.8058   329.9280 </r>
       <r>    -2.5793     0.0000   330.0000 </r>
       <r>    -2.4854     0.0000   330.0000 </r>
       <r>    -2.3914     0.0000   330.0000 </r>
       <r>    -2.2974     0.0000   330.0000 </r>
       <r>    -2.2035     0.0000   330.0000 </r>
       <r>    -2.1095     0.0000   330.0000 </r>
       <r>    -2.0156     0.0000   330.0000 </r>
       <r>    -1.9216     0.0000   330.0000 </r>
       <r>    -1.8276     0.0000   330.0000 </r>
       <r>    -1.7337     0.0000   330.0000 </r>
       <r>    -1.6397     0.2612   330.0245 </r>
       <r>    -1.5458    42.3106   334.0000 </r>
       <r>    -1.4518    16.0296   335.5061 </r>
       <r>    -1.3578     0.0000   336.0000 </r>
       <r>    -1.2639     0.0000   336.0000 </r>
       <r>    -1.1699     0.0059   336.0006 </r>
       <r>    -1.0760    57.9614   341.4465 </r>
       <r>    -0.9820    57.5805   347.8641 </r>
       <r>    -0.8881    31.8146   352.0000 </r>
       <r>    -0.7941     0.0000   352.0000 </r>
       <r>    -0.7001     0.0000   352.0000 </r>
       <r>    -0.6062     0.0000   352.0000 </r>
       <r>    -0.5122     0.0000   352.0000 </r>
       <r>    -0.4183     0.0000   352.0000 </r>
       <r>    -0.3243     0.0004   352.0000 </r>
       <r>    -0.2303    73.5519   358.9109 </r>
       <r>    -0.1364    31.2112   362.3353 </r>
       <r>    -0.0424    11.3377   364.0000 </r>
       <r>     0.0515     0.0000   364.0000 </r>
       <r>     0.1455    45.5152   368.2766 </r>
       <r>     0.2395    34.0543   372.1021 </r>
       <r>     0.3334    55.9222   377.8237 </r>
       <r>     0.4274    54.6382   383.8058 </r>
       <r>     0.5213    20.2051   386.3678 </r>
       <r>     0.6153    46.0722   391.1635 </r>
       <r>     0.7093    70.6475   399.0095 </r>
       <r>     0.8032    80.9957   407.7116 </r>
       <r>     0.8972    68.9596   415.1491 </r>
       <r>     0.9911    70.3541   422.9137 </r>
       <r>     1.0851    86.2169   431.7420 </r>
       <r>     1.1790    75.5405   440.1014 </r>
       <r>     1.2730    62.9367   447.2509 </r>
       <r>     1.3670     4.2364   448.0000 </r>
       <r>     1.4609     0.0000   448.0000 </r>
       <r>     1.5549     0.0000   448.0000 </r>
       <r>     1.6488     0.0000   448.0000 </r>
       <r>     1.7428     0.0000   448.0000 </r>
       <r>     1.8368     0.0000   448.0000 </r>
       <r>     1.9307     0.0000   448.0000 </r>
       <r>     2.0247     0.0000   448.0000 </r>
       <r>     2.1186     0.0000   448.0000 </r>
       <r>     2.2126     0.0000   448.0000 </r>
       <r>     2.3066     0.0000   448.0000 </r>
       <r>     2.4005     0.0000   448.0000 </r>
       <r>     2.4945     0.0000   448.0000 </r>
       <r>     2.5884     0.0000   448.0000 </r>
      </set>
     </set>
    </array>
   </total>
  </dos>
 </calculation>
 <structure name="finalpos" >
  <crystal>
   <varray name="basis" >
    <v>      25.08481178       0.02684919       0.00000000 </v>
    <v>       0.00879872      25.09834396       0.00000000 </v>
    <v>       0.00000000       0.00000000      20.00000000 </v>
   </varray>
   <i name="volume">  12591.73995841 </i>
   <varray name="rec_basis" >
    <v>       0.03986477      -0.00001398       0.00000000 </v>
    <v>      -0.00004265       0.03984328       0.00000000 </v>
    <v>       0.00000000       0.00000000       0.05000000 </v>
   </varray>
  </crystal>
  <varray name="positions" >
   <v>       0.84418710       0.92300319       0.49993868 </v>
   <v>       0.87568530       0.87827126       0.50328601 </v>
   <v>       0.93019798       0.89513476       0.50761088 </v>
   <v>       0.87831549       0.96880901       0.50228568 </v>
   <v>       0.86266060       0.02251188       0.49764903 </v>
   <v>       0.89759549       0.06657344       0.49539060 </v>
   <v>       0.96883849       0.11623100       0.49420611 </v>
   <v>       0.92347709       0.15254916       0.49071205 </v>
   <v>       0.87904522       0.12162419       0.49212358 </v>
   <v>       0.02230227       0.13384266       0.49450245 </v>
   <v>       0.06752541       0.10073844       0.49687624 </v>
   <v>       0.11931966       0.02697056       0.50194137 </v>
   <v>       0.15341764       0.07272157       0.50574442 </v>
   <v>       0.12198201       0.11749926       0.50264099 </v>
   <v>       0.13505647       0.97321312       0.50529070 </v>
   <v>       0.10014380       0.92911858       0.50670596 </v>
   <v>       0.02889295       0.87955177       0.50805671 </v>
   <v>       0.07422036       0.84309560       0.50944803 </v>
   <v>       0.11867294       0.87399516       0.50801289 </v>
   <v>       0.97543802       0.86206903       0.50880254 </v>
   <v>       0.96532377       0.80350108       0.50964196 </v>
   <v>       0.94396034       0.77863995       0.56637936 </v>
   <v>       0.93498415       0.72370690       0.56702465 </v>
   <v>       0.94683744       0.69238503       0.51104880 </v>
   <v>       0.19355928       0.96303532       0.50823521 </v>
   <v>       0.21702471       0.93996798       0.56496395 </v>
   <v>       0.27202515       0.93140228       0.56778499 </v>
   <v>       0.30496473       0.94548566       0.51415406 </v>
   <v>       0.03257838       0.19233668       0.49324625 </v>
   <v>       0.05200222       0.30339769       0.49101451 </v>
   <v>       0.02703611       0.27947555       0.54614314 </v>
   <v>       0.01749196       0.22482957       0.54733740 </v>
   <v>       0.80419176       0.03281115       0.49417722 </v>
   <v>       0.77088936       0.02038877       0.54853763 </v>
   <v>       0.71619278       0.02961355       0.54521811 </v>
   <v>       0.69304827       0.05161570       0.48761811 </v>
   <v>       0.36451126       0.93767589       0.51744862 </v>
   <v>       0.93893032       0.63287847       0.51210907 </v>
   <v>       0.63360516       0.06013757       0.48404749 </v>
   <v>       0.06065512       0.36283682       0.48951006 </v>
   <v>       0.44583168       0.99344572       0.51147505 </v>
   <v>       0.47339075       0.04081022       0.52698396 </v>
   <v>       0.99458940       0.55139002       0.50999987 </v>
   <v>       0.04139866       0.52370921       0.52804874 </v>
   <v>       0.96793402       0.71732672       0.45414358 </v>
   <v>       0.97703667       0.77205576       0.45335869 </v>
   <v>       0.28150832       0.96835994       0.45727352 </v>
   <v>       0.22670684       0.97697923       0.45429339 </v>
   <v>       0.05774334       0.21623521       0.43829592 </v>
   <v>       0.06717801       0.27108555       0.43722888 </v>
   <v>       0.78100251       0.05474995       0.43658726 </v>
   <v>       0.72612629       0.06396798       0.43345695 </v>
   <v>       0.52439514       0.95733043       0.47452148 </v>
   <v>       0.55193828       0.00471542       0.49000900 </v>
   <v>       0.95849822       0.47250780       0.47467002 </v>
   <v>       0.00544934       0.44486606       0.49228003 </v>
   <v>       0.92973598       0.94998761       0.50725018 </v>
   <v>       0.95220046       0.06423995       0.49673665 </v>
   <v>       0.06794448       0.04589816       0.49660639 </v>
   <v>       0.04553963       0.93152838       0.50644213 </v>
   <v>       0.52549666       0.04651083       0.51625589 </v>
   <v>       0.39118791       0.98926397       0.52000651 </v>
   <v>       0.04690857       0.47137697       0.51911888 </v>
   <v>       0.99055384       0.60616293       0.51646398 </v>
   <v>       0.47232625       0.95162670       0.48534753 </v>
   <v>       0.60648255       0.00882643       0.48121529 </v>
   <v>       0.95301563       0.52482481       0.48355971 </v>
   <v>       0.00940992       0.39016095       0.48493161 </v>
   <v>       0.69081484       0.01969917       0.58779170 </v>
   <v>       0.78850662       0.00375626       0.59387066 </v>
   <v>       0.80116166       0.92468827       0.49515004 </v>
   <v>       0.86295440       0.83701000       0.50176629 </v>
   <v>       0.96294233       0.97344441       0.50796419 </v>
   <v>       0.03471612       0.02250446       0.49498902 </v>
   <v>       0.83773485       0.13453113       0.49134171 </v>
   <v>       0.92558911       0.19566654       0.48763979 </v>
   <v>       0.99837579       0.20661394       0.59066391 </v>
   <v>       0.01497180       0.30422374       0.58843655 </v>
   <v>       0.13472959       0.15871012       0.50527397 </v>
   <v>       0.19637394       0.07094909       0.51132761 </v>
   <v>       0.07203426       0.79992627       0.51115779 </v>
   <v>       0.15996163       0.86102100       0.50750299 </v>
   <v>       0.19187209       0.92921210       0.60735524 </v>
   <v>       0.28967813       0.91367724       0.61251138 </v>
   <v>       0.91865590       0.70485933       0.61179046 </v>
   <v>       0.93488481       0.80258046       0.61048877 </v>
   <v>       0.37512279       0.91224549       0.56068898 </v>
   <v>       0.91231026       0.62143312       0.55383200 </v>
   <v>       0.61905187       0.08108562       0.52876670 </v>
   <v>       0.08032887       0.37654314       0.53553709 </v>
   <v>       0.45230335       0.07514312       0.54816313 </v>
   <v>       0.37452345       0.01625979       0.55149473 </v>
   <v>       0.07539806       0.54482878       0.54988523 </v>
   <v>       0.01718408       0.62338973       0.54791608 </v>
   <v>       0.70871041       0.08090411       0.38810260 </v>
   <v>       0.80629652       0.06422399       0.39383823 </v>
   <v>       0.06942603       0.19156708       0.39580681 </v>
   <v>       0.08646722       0.28909526       0.39379792 </v>
   <v>       0.20887527       0.99438519       0.40956270 </v>
   <v>       0.30672831       0.97951263       0.41504365 </v>
   <v>       0.99321078       0.79110782       0.40872780 </v>
   <v>       0.97729709       0.69334455       0.41011802 </v>
   <v>       0.37914185       0.91680745       0.47270103 </v>
   <v>       0.91939994       0.61918567       0.46599889 </v>
   <v>       0.62341775       0.08568406       0.44076785 </v>
   <v>       0.08749683       0.37365358       0.44775303 </v>
   <v>       0.54544204       0.92301107       0.45321284 </v>
   <v>       0.62317952       0.98152648       0.45018463 </v>
   <v>       0.92436096       0.45133287       0.45325688 </v>
   <v>       0.98274896       0.37335770       0.45317514 </v>
  </varray>
 </structure>
</modeling>
