<?xml version="1.0" encoding="ISO-8859-1"?>
<modeling>
 <generator>
  <i name="program" type="string">vasp </i>
  <i name="version" type="string">5.4.4.18Apr17-6-g9f103f2a35  </i>
  <i name="subversion" type="string">(build Jun 07 2020 16:50:00) complex            parallel </i>
  <i name="platform" type="string">LinuxIFC </i>
  <i name="date" type="string">2023 02 23 </i>
  <i name="time" type="string">11:20:14 </i>
 </generator>
 <incar>
  <i type="string" name="SYSTEM">Simulation for cell shape cell volume r</i>
  <i type="int" name="ISTART">     1</i>
  <i type="string" name="PREC">high</i>
  <i type="string" name="ALGO">48</i>
  <i type="int" name="ICHARG">    11</i>
  <i type="int" name="NELM">   200</i>
  <i type="int" name="IBRION">    -1</i>
  <i name="EDIFF">      0.00001000</i>
  <i name="EDIFFG">     -0.01000000</i>
  <i type="int" name="NSW">     0</i>
  <i type="int" name="ISIF">     2</i>
  <i name="ENCUT">    500.00000000</i>
  <i name="POTIM">      0.30000000</i>
  <i type="string" name="LREAL">A</i>
  <i type="int" name="ISMEAR">     0</i>
  <i name="SIGMA">      0.01000000</i>
  <i type="int" name="NWRITE">     0</i>
  <i type="logical" name="LWAVE"> F  </i>
  <i type="logical" name="LCHARG"> F  </i>
  <v type="int" name="KPOINT_BSE">    -1     0     0     0</v>
  <i type="int" name="NELM">   200</i>
  <i type="string" name="GGA">PE</i>
 </incar>
 <structure name="primitive_cell" >
  <crystal>
   <varray name="basis" >
    <v>      22.67462876       0.06200848       0.00000000 </v>
    <v>     -11.28424343      19.37244757       0.00000000 </v>
    <v>       0.00000000       0.00000000      20.00000000 </v>
   </varray>
   <i name="volume">   8799.25551609 </i>
   <varray name="rec_basis" >
    <v>       0.04403202       0.02564818       0.00000000 </v>
    <v>      -0.00014094       0.05153761       0.00000000 </v>
    <v>       0.00000000       0.00000000       0.05000000 </v>
   </varray>
  </crystal>
  <varray name="positions" >
   <v>      -0.31397318       0.17282754      -0.30423523 </v>
   <v>      -0.26183178       0.19661770      -0.33978455 </v>
   <v>      -0.35235722       0.23311371      -0.34039268 </v>
   <v>      -0.20604482       0.20473923      -0.32294929 </v>
   <v>      -0.26882342       0.21561501      -0.40912497 </v>
   <v>      -0.32723216       0.17356081      -0.44817895 </v>
   <v>      -0.39403213       0.22807421      -0.36458780 </v>
   <v>      -0.39985146       0.13289886      -0.42913642 </v>
   <v>      -0.43154097       0.16726104      -0.39810831 </v>
   <v>      -0.21578812       0.27239089      -0.43232817 </v>
   <v>      -0.42137200       0.24467820      -0.33772368 </v>
   <v>      -0.43988259       0.06704291      -0.45573272 </v>
   <v>      -0.31553349       0.17827781       0.48524126 </v>
   <v>      -0.41297996       0.04284528      -0.47741412 </v>
   <v>       0.49741601       0.13952251      -0.41208978 </v>
   <v>      -0.21456678       0.28697850      -0.49726409 </v>
   <v>      -0.25971071       0.23182305       0.46051804 </v>
   <v>       0.48845495       0.03251847      -0.45544788 </v>
   <v>       0.45938657       0.07306210      -0.43870711 </v>
   <v>       0.49158767       0.23557373      -0.36223474 </v>
   <v>       0.46931016       0.18595295      -0.40895465 </v>
   <v>      -0.17253310       0.35975411       0.48187058 </v>
   <v>      -0.41538813       0.32927429      -0.44748949 </v>
   <v>      -0.29905685       0.30531606       0.44032423 </v>
   <v>      -0.25089891       0.23250294       0.40669994 </v>
   <v>      -0.44351054       0.34693099      -0.28162998 </v>
   <v>      -0.08169575       0.37121560      -0.47438108 </v>
   <v>      -0.46857176      -0.05478541       0.49732592 </v>
   <v>       0.44674560      -0.04140752      -0.47215848 </v>
   <v>       0.40491632       0.05256813      -0.44596587 </v>
   <v>      -0.10422745       0.39820469      -0.49948096 </v>
   <v>      -0.27529564       0.35746846       0.44050693 </v>
   <v>       0.48676553       0.29112803      -0.37313288 </v>
   <v>      -0.20607626       0.39313509       0.45403659 </v>
   <v>      -0.34719150       0.39485584      -0.48451047 </v>
   <v>       0.47664458      -0.07982701      -0.49435369 </v>
   <v>      -0.39861065       0.36911387      -0.48003626 </v>
   <v>      -0.49013178       0.34200985      -0.31762269 </v>
   <v>       0.42846340       0.18985763      -0.46122710 </v>
   <v>       0.37600229      -0.07816000      -0.46058656 </v>
   <v>       0.35031941      -0.05220032      -0.44005636 </v>
   <v>      -0.29121059       0.37730103       0.40369835 </v>
   <v>       0.39736045       0.14616777      -0.49394278 </v>
   <v>       0.46704867       0.30450309      -0.43538935 </v>
   <v>      -0.06547205       0.46971768       0.49060432 </v>
   <v>      -0.18387135      -0.45753693      -0.39009313 </v>
   <v>      -0.16906233       0.46661672       0.45041548 </v>
   <v>       0.43165954       0.24920944      -0.47529775 </v>
   <v>       0.43902043      -0.15065863       0.49584512 </v>
   <v>       0.30816538      -0.13216949      -0.32023272 </v>
   <v>      -0.43333946       0.40499356      -0.48481252 </v>
   <v>      -0.09976440      -0.49706501       0.46641730 </v>
   <v>       0.48045941       0.37577356      -0.31255144 </v>
   <v>       0.02470787       0.42350592       0.48794924 </v>
   <v>      -0.21126796       0.49989979       0.44431464 </v>
   <v>      -0.22282606      -0.46840576      -0.49967515 </v>
   <v>      -0.17013335      -0.43348263      -0.44699370 </v>
   <v>       0.00671932      -0.49262644      -0.48900119 </v>
   <v>       0.49745996       0.37465819      -0.46457762 </v>
   <v>       0.49118795      -0.21757889      -0.47073581 </v>
   <v>       0.33677387      -0.14897952      -0.47046872 </v>
   <v>       0.47057823      -0.19298024       0.47851484 </v>
   <v>       0.04516426       0.47401964      -0.48873894 </v>
   <v>      -0.28205500      -0.47301577      -0.48798650 </v>
   <v>       0.36766110      -0.18736087      -0.49214384 </v>
   <v>       0.28503797      -0.19475184      -0.32905246 </v>
   <v>      -0.25495456       0.48463046       0.39317805 </v>
   <v>      -0.33034522      -0.49954688       0.46427041 </v>
   <v>      -0.07278085      -0.44118906       0.46127789 </v>
   <v>      -0.40263889       0.47122818       0.48488295 </v>
   <v>       0.29419891      -0.23403588      -0.29284938 </v>
   <v>       0.14280410       0.46341155      -0.33008591 </v>
   <v>       0.04028217      -0.42333963      -0.46886232 </v>
   <v>      -0.31124985       0.48909905       0.40054509 </v>
   <v>      -0.11577388      -0.38307908      -0.46588202 </v>
   <v>       0.10989796      -0.49652780      -0.46037985 </v>
   <v>       0.49920769      -0.27090249      -0.48212515 </v>
   <v>       0.01434979      -0.39349515      -0.47223871 </v>
   <v>       0.26344113      -0.19093892      -0.45228564 </v>
   <v>       0.49609535      -0.30583120      -0.37184849 </v>
   <v>       0.46876518      -0.21858795       0.41378985 </v>
   <v>      -0.47333241      -0.29270007      -0.42552232 </v>
   <v>       0.16784422       0.43285058      -0.36031625 </v>
   <v>       0.46162446       0.40920656      -0.47451748 </v>
   <v>       0.17434355       0.38497848      -0.33881204 </v>
   <v>       0.24300946      -0.22449697      -0.39002142 </v>
   <v>       0.46279049      -0.19377555       0.36937224 </v>
   <v>       0.32983157      -0.25788102       0.49852251 </v>
   <v>       0.15291329       0.47260416      -0.47436838 </v>
   <v>      -0.34398280       0.47824098       0.35685674 </v>
   <v>      -0.42176722      -0.29653320      -0.43823707 </v>
   <v>       0.13975663      -0.42978107      -0.43068599 </v>
   <v>       0.35375161      -0.28595513       0.49916173 </v>
   <v>       0.10610824      -0.39111537      -0.44198144 </v>
   <v>       0.40945147       0.38451223      -0.45604256 </v>
   <v>      -0.44031455      -0.49611796       0.47439431 </v>
   <v>       0.19123756       0.45639921      -0.42978463 </v>
   <v>       0.28306410      -0.28423493      -0.48018254 </v>
   <v>       0.46822657      -0.27807792       0.40523006 </v>
   <v>       0.47779676      -0.30951682       0.45779654 </v>
   <v>       0.16295814       0.46544298       0.46027121 </v>
   <v>       0.49117285       0.47422151       0.49453934 </v>
   <v>       0.21488433      -0.21351404      -0.49981974 </v>
   <v>       0.21649336      -0.43303519      -0.38140633 </v>
   <v>       0.18951146      -0.28689463      -0.38373570 </v>
   <v>       0.20281943      -0.39988326      -0.40062687 </v>
   <v>      -0.41510207      -0.44603823       0.44964277 </v>
   <v>       0.14741470      -0.31551520      -0.43600958 </v>
   <v>       0.21278862      -0.36064410      -0.36843069 </v>
   <v>       0.24917068       0.45987698      -0.44699737 </v>
   <v>       0.21769145       0.46241388       0.44156706 </v>
   <v>       0.15596878      -0.27150521      -0.49097937 </v>
   <v>       0.35950447      -0.35282404       0.40716818 </v>
   <v>       0.44771726      -0.38555969       0.45766155 </v>
   <v>       0.45189706      -0.49033094       0.48340284 </v>
   <v>       0.11722536      -0.28625668       0.47020188 </v>
   <v>       0.35249030       0.41972125      -0.49927505 </v>
   <v>      -0.46038989      -0.38759915       0.47405450 </v>
   <v>       0.33906427      -0.38935710       0.44354926 </v>
   <v>       0.26850887       0.47250025       0.48895079 </v>
   <v>       0.22312963       0.45452059       0.38850049 </v>
   <v>       0.48434887      -0.41898226       0.47097993 </v>
   <v>       0.37527223      -0.42366028       0.45518970 </v>
   <v>       0.38040456       0.47411812       0.48725538 </v>
   <v>       0.28799466      -0.41999365       0.43759749 </v>
   <v>       0.34232084      -0.49402797       0.47406669 </v>
  </varray>
 </structure>
 <varray name="primitive_index" >
  <v type="int" >        1 </v>
  <v type="int" >       45 </v>
  <v type="int" >       24 </v>
  <v type="int" >        2 </v>
  <v type="int" >       72 </v>
  <v type="int" >       70 </v>
  <v type="int" >       50 </v>
  <v type="int" >       97 </v>
  <v type="int" >       85 </v>
  <v type="int" >       44 </v>
  <v type="int" >       19 </v>
  <v type="int" >       98 </v>
  <v type="int" >       48 </v>
  <v type="int" >       23 </v>
  <v type="int" >       84 </v>
  <v type="int" >       71 </v>
  <v type="int" >       79 </v>
  <v type="int" >       96 </v>
  <v type="int" >       83 </v>
  <v type="int" >       52 </v>
  <v type="int" >       90 </v>
  <v type="int" >       68 </v>
  <v type="int" >       26 </v>
  <v type="int" >       13 </v>
  <v type="int" >       17 </v>
  <v type="int" >        5 </v>
  <v type="int" >       14 </v>
  <v type="int" >       20 </v>
  <v type="int" >       95 </v>
  <v type="int" >       31 </v>
  <v type="int" >       67 </v>
  <v type="int" >       43 </v>
  <v type="int" >       91 </v>
  <v type="int" >       69 </v>
  <v type="int" >       21 </v>
  <v type="int" >       82 </v>
  <v type="int" >       51 </v>
  <v type="int" >       53 </v>
  <v type="int" >      105 </v>
  <v type="int" >      115 </v>
  <v type="int" >       35 </v>
  <v type="int" >       16 </v>
  <v type="int" >       27 </v>
  <v type="int" >       89 </v>
  <v type="int" >       76 </v>
  <v type="int" >        3 </v>
  <v type="int" >       77 </v>
  <v type="int" >       55 </v>
  <v type="int" >       81 </v>
  <v type="int" >        9 </v>
  <v type="int" >       88 </v>
  <v type="int" >       78 </v>
  <v type="int" >        6 </v>
  <v type="int" >       41 </v>
  <v type="int" >       73 </v>
  <v type="int" >       75 </v>
  <v type="int" >       47 </v>
  <v type="int" >      124 </v>
  <v type="int" >      103 </v>
  <v type="int" >       54 </v>
  <v type="int" >      116 </v>
  <v type="int" >       93 </v>
  <v type="int" >      125 </v>
  <v type="int" >       46 </v>
  <v type="int" >      107 </v>
  <v type="int" >       61 </v>
  <v type="int" >       49 </v>
  <v type="int" >       74 </v>
  <v type="int" >       15 </v>
  <v type="int" >       87 </v>
  <v type="int" >        8 </v>
  <v type="int" >       11 </v>
  <v type="int" >      121 </v>
  <v type="int" >       80 </v>
  <v type="int" >        4 </v>
  <v type="int" >      126 </v>
  <v type="int" >       94 </v>
  <v type="int" >       40 </v>
  <v type="int" >      111 </v>
  <v type="int" >       10 </v>
  <v type="int" >      106 </v>
  <v type="int" >       62 </v>
  <v type="int" >       64 </v>
  <v type="int" >      104 </v>
  <v type="int" >       12 </v>
  <v type="int" >      112 </v>
  <v type="int" >       28 </v>
  <v type="int" >       58 </v>
  <v type="int" >      123 </v>
  <v type="int" >       18 </v>
  <v type="int" >        7 </v>
  <v type="int" >      119 </v>
  <v type="int" >       30 </v>
  <v type="int" >      120 </v>
  <v type="int" >       37 </v>
  <v type="int" >       86 </v>
  <v type="int" >      114 </v>
  <v type="int" >       36 </v>
  <v type="int" >       56 </v>
  <v type="int" >       92 </v>
  <v type="int" >       66 </v>
  <v type="int" >      102 </v>
  <v type="int" >       65 </v>
  <v type="int" >       34 </v>
  <v type="int" >       60 </v>
  <v type="int" >       57 </v>
  <v type="int" >       22 </v>
  <v type="int" >      122 </v>
  <v type="int" >       29 </v>
  <v type="int" >       63 </v>
  <v type="int" >      117 </v>
  <v type="int" >      118 </v>
  <v type="int" >       38 </v>
  <v type="int" >      101 </v>
  <v type="int" >       99 </v>
  <v type="int" >       42 </v>
  <v type="int" >       33 </v>
  <v type="int" >       25 </v>
  <v type="int" >       59 </v>
  <v type="int" >      113 </v>
  <v type="int" >       39 </v>
  <v type="int" >      100 </v>
  <v type="int" >      108 </v>
  <v type="int" >      110 </v>
  <v type="int" >       32 </v>
  <v type="int" >      109 </v>
 </varray>
 <kpoints>
  <generation param="listgenerated">
   <i name="divisions" type="int">      20 </i>
   <v>       0.00000000       0.00000000       0.00000000 </v>
   <v>       0.50000000      -0.50000000       0.00000000 </v>
   <v>       0.67068970      -0.33688625       0.00000000 </v>
   <v>       0.50000000       0.00000000       0.00000000 </v>
   <v>       0.32931030       0.33688625       0.00000000 </v>
   <v>       0.00000000       0.50000000       0.00000000 </v>
   <v>       0.00000000       0.00000000       0.00000000 </v>
  </generation>
  <varray name="kpointlist" >
   <v>       0.00000000       0.00000000       0.00000000 </v>
   <v>       0.02631579      -0.02631579       0.00000000 </v>
   <v>       0.05263158      -0.05263158       0.00000000 </v>
   <v>       0.07894737      -0.07894737       0.00000000 </v>
   <v>       0.10526316      -0.10526316       0.00000000 </v>
   <v>       0.13157895      -0.13157895       0.00000000 </v>
   <v>       0.15789474      -0.15789474       0.00000000 </v>
   <v>       0.18421053      -0.18421053       0.00000000 </v>
   <v>       0.21052632      -0.21052632       0.00000000 </v>
   <v>       0.23684211      -0.23684211       0.00000000 </v>
   <v>       0.26315789      -0.26315789       0.00000000 </v>
   <v>       0.28947368      -0.28947368       0.00000000 </v>
   <v>       0.31578947      -0.31578947       0.00000000 </v>
   <v>       0.34210526      -0.34210526       0.00000000 </v>
   <v>       0.36842105      -0.36842105       0.00000000 </v>
   <v>       0.39473684      -0.39473684       0.00000000 </v>
   <v>       0.42105263      -0.42105263       0.00000000 </v>
   <v>       0.44736842      -0.44736842       0.00000000 </v>
   <v>       0.47368421      -0.47368421       0.00000000 </v>
   <v>       0.50000000      -0.50000000       0.00000000 </v>
   <v>       0.50000000      -0.50000000       0.00000000 </v>
   <v>       0.50898367      -0.49141507       0.00000000 </v>
   <v>       0.51796734      -0.48283013       0.00000000 </v>
   <v>       0.52695101      -0.47424520       0.00000000 </v>
   <v>       0.53593467      -0.46566026       0.00000000 </v>
   <v>       0.54491834      -0.45707533       0.00000000 </v>
   <v>       0.55390201      -0.44849040       0.00000000 </v>
   <v>       0.56288568      -0.43990546       0.00000000 </v>
   <v>       0.57186935      -0.43132053       0.00000000 </v>
   <v>       0.58085302      -0.42273559       0.00000000 </v>
   <v>       0.58983669      -0.41415066       0.00000000 </v>
   <v>       0.59882035      -0.40556572       0.00000000 </v>
   <v>       0.60780402      -0.39698079       0.00000000 </v>
   <v>       0.61678769      -0.38839586       0.00000000 </v>
   <v>       0.62577136      -0.37981092       0.00000000 </v>
   <v>       0.63475503      -0.37122599       0.00000000 </v>
   <v>       0.64373870      -0.36264105       0.00000000 </v>
   <v>       0.65272237      -0.35405612       0.00000000 </v>
   <v>       0.66170603      -0.34547119       0.00000000 </v>
   <v>       0.67068970      -0.33688625       0.00000000 </v>
   <v>       0.67068970      -0.33688625       0.00000000 </v>
   <v>       0.66170603      -0.31915540       0.00000000 </v>
   <v>       0.65272237      -0.30142454       0.00000000 </v>
   <v>       0.64373870      -0.28369369       0.00000000 </v>
   <v>       0.63475503      -0.26596283       0.00000000 </v>
   <v>       0.62577136      -0.24823197       0.00000000 </v>
   <v>       0.61678769      -0.23050112       0.00000000 </v>
   <v>       0.60780402      -0.21277026       0.00000000 </v>
   <v>       0.59882035      -0.19503941       0.00000000 </v>
   <v>       0.58983669      -0.17730855       0.00000000 </v>
   <v>       0.58085302      -0.15957770       0.00000000 </v>
   <v>       0.57186935      -0.14184684       0.00000000 </v>
   <v>       0.56288568      -0.12411599       0.00000000 </v>
   <v>       0.55390201      -0.10638513       0.00000000 </v>
   <v>       0.54491834      -0.08865428       0.00000000 </v>
   <v>       0.53593467      -0.07092342       0.00000000 </v>
   <v>       0.52695101      -0.05319257       0.00000000 </v>
   <v>       0.51796734      -0.03546171       0.00000000 </v>
   <v>       0.50898367      -0.01773086       0.00000000 </v>
   <v>       0.50000000       0.00000000       0.00000000 </v>
   <v>       0.50000000       0.00000000       0.00000000 </v>
   <v>       0.49101633       0.01773086       0.00000000 </v>
   <v>       0.48203266       0.03546171       0.00000000 </v>
   <v>       0.47304899       0.05319257       0.00000000 </v>
   <v>       0.46406533       0.07092342       0.00000000 </v>
   <v>       0.45508166       0.08865428       0.00000000 </v>
   <v>       0.44609799       0.10638513       0.00000000 </v>
   <v>       0.43711432       0.12411599       0.00000000 </v>
   <v>       0.42813065       0.14184684       0.00000000 </v>
   <v>       0.41914698       0.15957770       0.00000000 </v>
   <v>       0.41016331       0.17730855       0.00000000 </v>
   <v>       0.40117965       0.19503941       0.00000000 </v>
   <v>       0.39219598       0.21277026       0.00000000 </v>
   <v>       0.38321231       0.23050112       0.00000000 </v>
   <v>       0.37422864       0.24823197       0.00000000 </v>
   <v>       0.36524497       0.26596283       0.00000000 </v>
   <v>       0.35626130       0.28369369       0.00000000 </v>
   <v>       0.34727763       0.30142454       0.00000000 </v>
   <v>       0.33829397       0.31915540       0.00000000 </v>
   <v>       0.32931030       0.33688625       0.00000000 </v>
   <v>       0.32931030       0.33688625       0.00000000 </v>
   <v>       0.31197818       0.34547119       0.00000000 </v>
   <v>       0.29464606       0.35405612       0.00000000 </v>
   <v>       0.27731393       0.36264105       0.00000000 </v>
   <v>       0.25998181       0.37122599       0.00000000 </v>
   <v>       0.24264969       0.37981092       0.00000000 </v>
   <v>       0.22531757       0.38839586       0.00000000 </v>
   <v>       0.20798545       0.39698079       0.00000000 </v>
   <v>       0.19065333       0.40556572       0.00000000 </v>
   <v>       0.17332121       0.41415066       0.00000000 </v>
   <v>       0.15598909       0.42273559       0.00000000 </v>
   <v>       0.13865697       0.43132053       0.00000000 </v>
   <v>       0.12132485       0.43990546       0.00000000 </v>
   <v>       0.10399273       0.44849040       0.00000000 </v>
   <v>       0.08666060       0.45707533       0.00000000 </v>
   <v>       0.06932848       0.46566026       0.00000000 </v>
   <v>       0.05199636       0.47424520       0.00000000 </v>
   <v>       0.03466424       0.48283013       0.00000000 </v>
   <v>       0.01733212       0.49141507       0.00000000 </v>
   <v>      -0.00000000       0.50000000       0.00000000 </v>
   <v>       0.00000000       0.50000000       0.00000000 </v>
   <v>       0.00000000       0.47368421       0.00000000 </v>
   <v>       0.00000000       0.44736842       0.00000000 </v>
   <v>       0.00000000       0.42105263       0.00000000 </v>
   <v>       0.00000000       0.39473684       0.00000000 </v>
   <v>       0.00000000       0.36842105       0.00000000 </v>
   <v>       0.00000000       0.34210526       0.00000000 </v>
   <v>       0.00000000       0.31578947       0.00000000 </v>
   <v>       0.00000000       0.28947368       0.00000000 </v>
   <v>       0.00000000       0.26315789       0.00000000 </v>
   <v>       0.00000000       0.23684211       0.00000000 </v>
   <v>       0.00000000       0.21052632       0.00000000 </v>
   <v>       0.00000000       0.18421053       0.00000000 </v>
   <v>       0.00000000       0.15789474       0.00000000 </v>
   <v>       0.00000000       0.13157895       0.00000000 </v>
   <v>       0.00000000       0.10526316       0.00000000 </v>
   <v>       0.00000000       0.07894737       0.00000000 </v>
   <v>       0.00000000       0.05263158       0.00000000 </v>
   <v>       0.00000000       0.02631579       0.00000000 </v>
   <v>       0.00000000       0.00000000       0.00000000 </v>
  </varray>
  <varray name="weights" >
   <v>       0.00833333 </v>
   <v>       0.00833333 </v>
   <v>       0.00833333 </v>
   <v>       0.00833333 </v>
   <v>       0.00833333 </v>
   <v>       0.00833333 </v>
   <v>       0.00833333 </v>
   <v>       0.00833333 </v>
   <v>       0.00833333 </v>
   <v>       0.00833333 </v>
   <v>       0.00833333 </v>
   <v>       0.00833333 </v>
   <v>       0.00833333 </v>
   <v>       0.00833333 </v>
   <v>       0.00833333 </v>
   <v>       0.00833333 </v>
   <v>       0.00833333 </v>
   <v>       0.00833333 </v>
   <v>       0.00833333 </v>
   <v>       0.00833333 </v>
   <v>       0.00833333 </v>
   <v>       0.00833333 </v>
   <v>       0.00833333 </v>
   <v>       0.00833333 </v>
   <v>       0.00833333 </v>
   <v>       0.00833333 </v>
   <v>       0.00833333 </v>
   <v>       0.00833333 </v>
   <v>       0.00833333 </v>
   <v>       0.00833333 </v>
   <v>       0.00833333 </v>
   <v>       0.00833333 </v>
   <v>       0.00833333 </v>
   <v>       0.00833333 </v>
   <v>       0.00833333 </v>
   <v>       0.00833333 </v>
   <v>       0.00833333 </v>
   <v>       0.00833333 </v>
   <v>       0.00833333 </v>
   <v>       0.00833333 </v>
   <v>       0.00833333 </v>
   <v>       0.00833333 </v>
   <v>       0.00833333 </v>
   <v>       0.00833333 </v>
   <v>       0.00833333 </v>
   <v>       0.00833333 </v>
   <v>       0.00833333 </v>
   <v>       0.00833333 </v>
   <v>       0.00833333 </v>
   <v>       0.00833333 </v>
   <v>       0.00833333 </v>
   <v>       0.00833333 </v>
   <v>       0.00833333 </v>
   <v>       0.00833333 </v>
   <v>       0.00833333 </v>
   <v>       0.00833333 </v>
   <v>       0.00833333 </v>
   <v>       0.00833333 </v>
   <v>       0.00833333 </v>
   <v>       0.00833333 </v>
   <v>       0.00833333 </v>
   <v>       0.00833333 </v>
   <v>       0.00833333 </v>
   <v>       0.00833333 </v>
   <v>       0.00833333 </v>
   <v>       0.00833333 </v>
   <v>       0.00833333 </v>
   <v>       0.00833333 </v>
   <v>       0.00833333 </v>
   <v>       0.00833333 </v>
   <v>       0.00833333 </v>
   <v>       0.00833333 </v>
   <v>       0.00833333 </v>
   <v>       0.00833333 </v>
   <v>       0.00833333 </v>
   <v>       0.00833333 </v>
   <v>       0.00833333 </v>
   <v>       0.00833333 </v>
   <v>       0.00833333 </v>
   <v>       0.00833333 </v>
   <v>       0.00833333 </v>
   <v>       0.00833333 </v>
   <v>       0.00833333 </v>
   <v>       0.00833333 </v>
   <v>       0.00833333 </v>
   <v>       0.00833333 </v>
   <v>       0.00833333 </v>
   <v>       0.00833333 </v>
   <v>       0.00833333 </v>
   <v>       0.00833333 </v>
   <v>       0.00833333 </v>
   <v>       0.00833333 </v>
   <v>       0.00833333 </v>
   <v>       0.00833333 </v>
   <v>       0.00833333 </v>
   <v>       0.00833333 </v>
   <v>       0.00833333 </v>
   <v>       0.00833333 </v>
   <v>       0.00833333 </v>
   <v>       0.00833333 </v>
   <v>       0.00833333 </v>
   <v>       0.00833333 </v>
   <v>       0.00833333 </v>
   <v>       0.00833333 </v>
   <v>       0.00833333 </v>
   <v>       0.00833333 </v>
   <v>       0.00833333 </v>
   <v>       0.00833333 </v>
   <v>       0.00833333 </v>
   <v>       0.00833333 </v>
   <v>       0.00833333 </v>
   <v>       0.00833333 </v>
   <v>       0.00833333 </v>
   <v>       0.00833333 </v>
   <v>       0.00833333 </v>
   <v>       0.00833333 </v>
   <v>       0.00833333 </v>
   <v>       0.00833333 </v>
   <v>       0.00833333 </v>
   <v>       0.00833333 </v>
  </varray>
 </kpoints>
 <parameters>
  <separator name="general" >
   <i type="string" name="SYSTEM">Simulation for cell shape cell volume r</i>
   <i type="logical" name="LCOMPAT"> F  </i>
  </separator>
  <separator name="electronic" >
   <i type="string" name="PREC">high</i>
   <i name="ENMAX">    500.00000000</i>
   <i name="ENAUG">    644.87300000</i>
   <i name="EDIFF">      0.00001000</i>
   <i type="int" name="IALGO">    38</i>
   <i type="int" name="IWAVPR">    10</i>
   <i type="int" name="NBANDS">   304</i>
   <i name="NELECT">    462.00000000</i>
   <i type="int" name="TURBO">     0</i>
   <i type="int" name="IRESTART">     0</i>
   <i type="int" name="NREBOOT">     0</i>
   <i type="int" name="NMIN">     0</i>
   <i name="EREF">      0.00000000</i>
   <separator name="electronic smearing" >
    <i type="int" name="ISMEAR">     0</i>
    <i name="SIGMA">      0.01000000</i>
    <i name="KSPACING">      0.50000000</i>
    <i type="logical" name="KGAMMA"> T  </i>
   </separator>
   <separator name="electronic projectors" >
    <i type="logical" name="LREAL"> T  </i>
    <v name="ROPT">     -0.00040000     -0.00040000     -0.00040000     -0.00040000</v>
    <i type="int" name="LMAXPAW">  -100</i>
    <i type="int" name="LMAXMIX">     2</i>
    <i type="logical" name="NLSPLINE"> F  </i>
   </separator>
   <separator name="electronic startup" >
    <i type="int" name="ISTART">     1</i>
    <i type="int" name="ICHARG">    11</i>
    <i type="int" name="INIWAV">     1</i>
   </separator>
   <separator name="electronic spin" >
    <i type="int" name="ISPIN">     1</i>
    <i type="logical" name="LNONCOLLINEAR"> F  </i>
    <v name="MAGMOM">      1.00000000      1.00000000      1.00000000      1.00000000      1.00000000      1.00000000      1.00000000      1.00000000      1.00000000      1.00000000      1.00000000      1.00000000      1.00000000      1.00000000      1.00000000      1.00000000      1.00000000      1.00000000      1.00000000      1.00000000
      1.00000000      1.00000000      1.00000000      1.00000000      1.00000000      1.00000000      1.00000000      1.00000000      1.00000000      1.00000000      1.00000000      1.00000000      1.00000000      1.00000000      1.00000000      1.00000000      1.00000000      1.00000000      1.00000000      1.00000000
      1.00000000      1.00000000      1.00000000      1.00000000      1.00000000      1.00000000      1.00000000      1.00000000      1.00000000      1.00000000      1.00000000      1.00000000      1.00000000      1.00000000      1.00000000      1.00000000      1.00000000      1.00000000      1.00000000      1.00000000
      1.00000000      1.00000000      1.00000000      1.00000000      1.00000000      1.00000000      1.00000000      1.00000000      1.00000000      1.00000000      1.00000000      1.00000000      1.00000000      1.00000000      1.00000000      1.00000000      1.00000000      1.00000000      1.00000000      1.00000000
      1.00000000      1.00000000      1.00000000      1.00000000      1.00000000      1.00000000      1.00000000      1.00000000      1.00000000      1.00000000      1.00000000      1.00000000      1.00000000      1.00000000      1.00000000      1.00000000      1.00000000      1.00000000      1.00000000      1.00000000
      1.00000000      1.00000000      1.00000000      1.00000000      1.00000000      1.00000000      1.00000000      1.00000000      1.00000000      1.00000000      1.00000000      1.00000000      1.00000000      1.00000000      1.00000000      1.00000000      1.00000000      1.00000000      1.00000000      1.00000000
      1.00000000      1.00000000      1.00000000      1.00000000      1.00000000      1.00000000</v>
    <i name="NUPDOWN">     -1.00000000</i>
    <i type="logical" name="LSORBIT"> F  </i>
    <v name="SAXIS">      0.00000000      0.00000000      1.00000000</v>
    <i type="logical" name="LSPIRAL"> F  </i>
    <v name="QSPIRAL">      0.00000000      0.00000000      0.00000000</v>
    <i type="logical" name="LZEROZ"> F  </i>
   </separator>
   <separator name="electronic exchange-correlation" >
    <i type="logical" name="LASPH"> F  </i>
    <i type="logical" name="LMETAGGA"> F  </i>
   </separator>
   <separator name="electronic convergence" >
    <i type="int" name="NELM">   200</i>
    <i type="int" name="NELMDL">     0</i>
    <i type="int" name="NELMIN">     2</i>
    <i name="ENINI">    500.00000000</i>
    <separator name="electronic convergence detail" >
     <i type="logical" name="LDIAG"> T  </i>
     <i type="logical" name="LSUBROT"> F  </i>
     <i name="WEIMIN">      0.00000000</i>
     <i name="EBREAK">      0.00000001</i>
     <i name="DEPER">      0.30000000</i>
     <i type="int" name="NRMM">     4</i>
     <i name="TIME">      0.40000000</i>
    </separator>
   </separator>
   <separator name="electronic mixer" >
    <i name="AMIX">      0.40000000</i>
    <i name="BMIX">      1.00000000</i>
    <i name="AMIN">      0.10000000</i>
    <i name="AMIX_MAG">      1.60000000</i>
    <i name="BMIX_MAG">      1.00000000</i>
    <separator name="electronic mixer details" >
     <i type="int" name="IMIX">     4</i>
     <i type="logical" name="MIXFIRST"> F  </i>
     <i type="int" name="MAXMIX">   -45</i>
     <i name="WC">    100.00000000</i>
     <i type="int" name="INIMIX">     1</i>
     <i type="int" name="MIXPRE">     1</i>
     <i type="int" name="MREMOVE">     5</i>
    </separator>
   </separator>
   <separator name="electronic dipolcorrection" >
    <i type="logical" name="LDIPOL"> F  </i>
    <i type="logical" name="LMONO"> F  </i>
    <i type="int" name="IDIPOL">     0</i>
    <i name="EPSILON">      1.00000000</i>
    <v name="DIPOL">   -100.00000000   -100.00000000   -100.00000000</v>
    <i name="EFIELD">      0.00000000</i>
   </separator>
  </separator>
  <separator name="grids" >
   <i type="int" name="NGX">   168</i>
   <i type="int" name="NGY">   168</i>
   <i type="int" name="NGZ">   150</i>
   <i type="int" name="NGXF">   250</i>
   <i type="int" name="NGYF">   250</i>
   <i type="int" name="NGZF">   224</i>
   <i type="logical" name="ADDGRID"> F  </i>
  </separator>
  <separator name="ionic" >
   <i type="int" name="NSW">     0</i>
   <i type="int" name="IBRION">    -1</i>
   <i type="int" name="MDALGO">     0</i>
   <i type="int" name="ISIF">     2</i>
   <i name="PSTRESS">      0.00000000</i>
   <i name="EDIFFG">     -0.01000000</i>
   <i type="int" name="NFREE">     0</i>
   <i name="POTIM">      0.30000000</i>
   <i name="SMASS">     -3.00000000</i>
   <i name="SCALEE">      1.00000000</i>
  </separator>
  <separator name="ionic md" >
   <i name="TEBEG">      0.00010000</i>
   <i name="TEEND">      0.00010000</i>
   <i type="int" name="NBLOCK">     1</i>
   <i type="int" name="KBLOCK">     1</i>
   <i type="int" name="NPACO">   256</i>
   <i name="APACO">     16.00000000</i>
  </separator>
  <separator name="symmetry" >
   <i type="int" name="ISYM">     2</i>
   <i name="SYMPREC">      0.00001000</i>
  </separator>
  <separator name="dos" >
   <i type="int" name="LORBIT">     0</i>
   <v name="RWIGS">     -1.00000000     -1.00000000     -1.00000000     -1.00000000</v>
   <i type="int" name="NEDOS">   301</i>
   <i name="EMIN">     10.00000000</i>
   <i name="EMAX">    -10.00000000</i>
   <i name="EFERMI">      0.00000000</i>
  </separator>
  <separator name="writing" >
   <i type="int" name="NWRITE">     0</i>
   <i type="logical" name="LWAVE"> F  </i>
   <i type="logical" name="LDOWNSAMPLE"> F  </i>
   <i type="logical" name="LCHARG"> F  </i>
   <i type="logical" name="LPARD"> F  </i>
   <i type="logical" name="LVTOT"> F  </i>
   <i type="logical" name="LVHAR"> F  </i>
   <i type="logical" name="LELF"> F  </i>
   <i type="logical" name="LOPTICS"> F  </i>
   <v name="STM">      0.00000000      0.00000000      0.00000000      0.00000000      0.00000000      0.00000000      0.00000000</v>
  </separator>
  <separator name="performance" >
   <i type="int" name="NPAR">    16</i>
   <i type="int" name="NSIM">     4</i>
   <i type="int" name="NBLK">    -1</i>
   <i type="logical" name="LPLANE"> T  </i>
   <i type="logical" name="LSCALAPACK"> T  </i>
   <i type="logical" name="LSCAAWARE"> F  </i>
   <i type="logical" name="LSCALU"> F  </i>
   <i type="logical" name="LASYNC"> F  </i>
   <i type="logical" name="LORBITALREAL"> F  </i>
  </separator>
  <separator name="miscellaneous" >
   <i type="int" name="IDIOT">     3</i>
   <i type="int" name="ISPECIAL">     0</i>
   <i type="logical" name="LMUSIC"> F  </i>
   <v name="POMASS">     16.00000000      1.00000000     14.00100000     12.01100000</v>
   <v name="DARWINR">      0.00000000      0.00000000      0.00000000      0.00000000</v>
   <v name="DARWINV">      1.00000000      1.00000000      1.00000000      1.00000000</v>
   <i type="logical" name="LCORR"> T  </i>
  </separator>
  <i type="logical" name="GGA_COMPAT"> T  </i>
  <i type="logical" name="LBERRY"> F  </i>
  <i type="int" name="ICORELEVEL">     0</i>
  <i type="logical" name="LDAU"> F  </i>
  <i type="int" name="I_CONSTRAINED_M">     0</i>
  <separator name="electronic exchange-correlation" >
   <i type="string" name="GGA">PE</i>
   <i type="int" name="VOSKOWN">     0</i>
   <i type="logical" name="LHFCALC"> F  </i>
   <i type="string" name="PRECFOCK"></i>
   <i type="logical" name="LSYMGRAD"> F  </i>
   <i type="logical" name="LHFONE"> F  </i>
   <i type="logical" name="LRHFCALC"> F  </i>
   <i type="logical" name="LTHOMAS"> F  </i>
   <i type="logical" name="LMODELHF"> F  </i>
   <i name="ENCUT4O">     -1.00000000</i>
   <i type="int" name="EXXOEP">     0</i>
   <i type="int" name="FOURORBIT">     0</i>
   <i name="AEXX">      0.00000000</i>
   <i name="HFALPHA">      0.00000000</i>
   <i name="MCALPHA">      0.00000000</i>
   <i name="ALDAX">      1.00000000</i>
   <i name="AGGAX">      1.00000000</i>
   <i name="ALDAC">      1.00000000</i>
   <i name="AGGAC">      1.00000000</i>
   <i type="int" name="NKREDX">     1</i>
   <i type="int" name="NKREDY">     1</i>
   <i type="int" name="NKREDZ">     1</i>
   <i type="logical" name="SHIFTRED"> F  </i>
   <i type="logical" name="ODDONLY"> F  </i>
   <i type="logical" name="EVENONLY"> F  </i>
   <i type="int" name="LMAXFOCK">     0</i>
   <i type="int" name="NMAXFOCKAE">     0</i>
   <i type="logical" name="LFOCKAEDFT"> F  </i>
   <i name="HFSCREEN">      0.00000000</i>
   <i name="HFSCREENC">      0.00000000</i>
   <i type="int" name="NBANDSGWLOW">     0</i>
  </separator>
  <separator name="vdW DFT" >
   <i type="logical" name="LUSE_VDW"> F  </i>
   <i name="Zab_VDW">     -0.84910000</i>
   <i name="PARAM1">      0.12340000</i>
   <i name="PARAM2">      1.00000000</i>
   <i name="PARAM3">      0.00000000</i>
  </separator>
  <separator name="model GW" >
   <i type="int" name="MODEL_GW">     0</i>
   <i name="MODEL_EPS0">     41.90121674</i>
   <i name="MODEL_ALPHA">      1.00000000</i>
  </separator>
  <separator name="linear response parameters" >
   <i type="logical" name="LEPSILON"> F  </i>
   <i type="logical" name="LRPA"> F  </i>
   <i type="logical" name="LNABLA"> F  </i>
   <i type="logical" name="LVEL"> F  </i>
   <i type="int" name="KINTER">     0</i>
   <i name="CSHIFT">      0.10000000</i>
   <i name="OMEGAMAX">     -1.00000000</i>
   <i name="DEG_THRESHOLD">      0.00200000</i>
   <i name="RTIME">     -0.10000000</i>
   <i name="WPLASMAI">      0.00000000</i>
   <v name="DFIELD">      0.00000000      0.00000000      0.00000000</v>
   <v name="WPLASMA">      0.00000000      0.00000000      0.00000000      0.00000000      0.00000000      0.00000000      0.00000000      0.00000000      0.00000000</v>
  </separator>
  <separator name="orbital magnetization" >
   <i type="logical" name="NUCIND"> F  </i>
   <v name="MAGPOS">      0.00000000      0.00000000      0.00000000</v>
   <i type="logical" name="LNICSALL"> T  </i>
   <i type="logical" name="ORBITALMAG"> F  </i>
   <i type="logical" name="LMAGBLOCH"> F  </i>
   <i type="logical" name="LCHIMAG"> F  </i>
   <i type="logical" name="LGAUGE"> T  </i>
   <i type="int" name="MAGATOM">     0</i>
   <v name="MAGDIPOL">      0.00000000      0.00000000      0.00000000</v>
   <v name="AVECCONST">      0.00000000      0.00000000      0.00000000</v>
  </separator>
  <separator name="response functions" >
   <i type="logical" name="LADDER"> F  </i>
   <i type="logical" name="LRPAFORCE"> F  </i>
   <i type="logical" name="LFXC"> F  </i>
   <i type="logical" name="LHARTREE"> T  </i>
   <i type="int" name="IBSE">     0</i>
   <v type="int" name="KPOINT">    -1     0     0     0</v>
   <i type="logical" name="LTCTE"> F  </i>
   <i type="logical" name="LTETE"> F  </i>
   <i type="logical" name="LTRIPLET"> F  </i>
   <i type="logical" name="LFXCEPS"> F  </i>
   <i type="logical" name="LFXHEG"> F  </i>
   <i type="int" name="NATURALO">     2</i>
   <i type="logical" name="L2ORDER"> F  </i>
   <i type="logical" name="LMP2LT"> F  </i>
   <i type="logical" name="LUSEW"> F  </i>
   <i name="ENCUTGW">     -2.00000000</i>
   <i name="ENCUTGWSOFT">     -2.00000000</i>
   <i name="ENCUTLF">     -1.00000000</i>
   <i type="int" name="LMAXMP2">    -1</i>
   <i name="SCISSOR">      0.00000000</i>
   <i type="int" name="NOMEGA">     0</i>
   <i type="int" name="NOMEGAR">     0</i>
   <i type="int" name="NBANDSGW">    -1</i>
   <i type="int" name="NBANDSO">    -1</i>
   <i type="int" name="NBANDSV">    -1</i>
   <i type="int" name="NELM">   200</i>
   <i type="int" name="NELMHF">     1</i>
   <i type="int" name="DIM">     3</i>
   <i type="int" name="ANTIRES">     0</i>
   <i name="OMEGAMAX">    -30.00000000</i>
   <i name="OMEGAMIN">    -30.00000000</i>
   <i name="OMEGATL">   -200.00000000</i>
   <i type="int" name="OMEGAGRID">   140</i>
   <i name="CSHIFT">     -0.10000000</i>
   <i type="logical" name="SELFENERGY"> F  </i>
   <i type="logical" name="LSPECTRAL"> F  </i>
   <i type="logical" name="LSPECTRALGW"> F  </i>
   <i type="logical" name="LSINGLES"> F  </i>
   <i type="logical" name="LFERMIGW"> F  </i>
   <i type="logical" name="ODDONLYGW"> F  </i>
   <i type="logical" name="EVENONLYGW"> F  </i>
   <i type="int" name="NKREDLFX">     1</i>
   <i type="int" name="NKREDLFY">     1</i>
   <i type="int" name="NKREDLFZ">     1</i>
   <i type="int" name="MAXMEM">  2800</i>
   <i type="int" name="TELESCOPE">     0</i>
   <i type="int" name="TAUPAR">     1</i>
   <i type="int" name="OMEGAPAR">    -1</i>
   <i name="LAMBDA">      1.00000000</i>
  </separator>
  <separator name="External order field" >
   <i name="OFIELD_KAPPA">      0.00000000</i>
   <v name="OFIELD_K">      0.00000000      0.00000000      0.00000000</v>
   <i name="OFIELD_Q6_NEAR">      0.00000000</i>
   <i name="OFIELD_Q6_FAR">      0.00000000</i>
   <i name="OFIELD_A">      0.00000000</i>
  </separator>
  <separator name="solvation model" >
   <i type="logical" name="LSOL"> F  </i>
  </separator>
 </parameters>
 <atominfo>
  <atoms>     126 </atoms>
  <types>       4 </types>
  <array name="atoms" >
   <dimension dim="1">ion</dimension>
   <field type="string">element</field>
   <field type="int">atomtype</field>
   <set>
    <rc><c>O </c><c>   1</c></rc>
    <rc><c>O </c><c>   1</c></rc>
    <rc><c>O </c><c>   1</c></rc>
    <rc><c>O </c><c>   1</c></rc>
    <rc><c>O </c><c>   1</c></rc>
    <rc><c>O </c><c>   1</c></rc>
    <rc><c>O </c><c>   1</c></rc>
    <rc><c>O </c><c>   1</c></rc>
    <rc><c>O </c><c>   1</c></rc>
    <rc><c>O </c><c>   1</c></rc>
    <rc><c>O </c><c>   1</c></rc>
    <rc><c>O </c><c>   1</c></rc>
    <rc><c>H </c><c>   2</c></rc>
    <rc><c>H </c><c>   2</c></rc>
    <rc><c>H </c><c>   2</c></rc>
    <rc><c>H </c><c>   2</c></rc>
    <rc><c>H </c><c>   2</c></rc>
    <rc><c>H </c><c>   2</c></rc>
    <rc><c>H </c><c>   2</c></rc>
    <rc><c>H </c><c>   2</c></rc>
    <rc><c>H </c><c>   2</c></rc>
    <rc><c>H </c><c>   2</c></rc>
    <rc><c>H </c><c>   2</c></rc>
    <rc><c>H </c><c>   2</c></rc>
    <rc><c>H </c><c>   2</c></rc>
    <rc><c>H </c><c>   2</c></rc>
    <rc><c>H </c><c>   2</c></rc>
    <rc><c>H </c><c>   2</c></rc>
    <rc><c>H </c><c>   2</c></rc>
    <rc><c>H </c><c>   2</c></rc>
    <rc><c>H </c><c>   2</c></rc>
    <rc><c>H </c><c>   2</c></rc>
    <rc><c>H </c><c>   2</c></rc>
    <rc><c>H </c><c>   2</c></rc>
    <rc><c>H </c><c>   2</c></rc>
    <rc><c>H </c><c>   2</c></rc>
    <rc><c>H </c><c>   2</c></rc>
    <rc><c>H </c><c>   2</c></rc>
    <rc><c>H </c><c>   2</c></rc>
    <rc><c>H </c><c>   2</c></rc>
    <rc><c>H </c><c>   2</c></rc>
    <rc><c>H </c><c>   2</c></rc>
    <rc><c>N </c><c>   3</c></rc>
    <rc><c>N </c><c>   3</c></rc>
    <rc><c>N </c><c>   3</c></rc>
    <rc><c>N </c><c>   3</c></rc>
    <rc><c>N </c><c>   3</c></rc>
    <rc><c>N </c><c>   3</c></rc>
    <rc><c>N </c><c>   3</c></rc>
    <rc><c>N </c><c>   3</c></rc>
    <rc><c>N </c><c>   3</c></rc>
    <rc><c>N </c><c>   3</c></rc>
    <rc><c>N </c><c>   3</c></rc>
    <rc><c>N </c><c>   3</c></rc>
    <rc><c>N </c><c>   3</c></rc>
    <rc><c>N </c><c>   3</c></rc>
    <rc><c>N </c><c>   3</c></rc>
    <rc><c>N </c><c>   3</c></rc>
    <rc><c>N </c><c>   3</c></rc>
    <rc><c>N </c><c>   3</c></rc>
    <rc><c>N </c><c>   3</c></rc>
    <rc><c>N </c><c>   3</c></rc>
    <rc><c>N </c><c>   3</c></rc>
    <rc><c>N </c><c>   3</c></rc>
    <rc><c>N </c><c>   3</c></rc>
    <rc><c>N </c><c>   3</c></rc>
    <rc><c>C </c><c>   4</c></rc>
    <rc><c>C </c><c>   4</c></rc>
    <rc><c>C </c><c>   4</c></rc>
    <rc><c>C </c><c>   4</c></rc>
    <rc><c>C </c><c>   4</c></rc>
    <rc><c>C </c><c>   4</c></rc>
    <rc><c>C </c><c>   4</c></rc>
    <rc><c>C </c><c>   4</c></rc>
    <rc><c>C </c><c>   4</c></rc>
    <rc><c>C </c><c>   4</c></rc>
    <rc><c>C </c><c>   4</c></rc>
    <rc><c>C </c><c>   4</c></rc>
    <rc><c>C </c><c>   4</c></rc>
    <rc><c>C </c><c>   4</c></rc>
    <rc><c>C </c><c>   4</c></rc>
    <rc><c>C </c><c>   4</c></rc>
    <rc><c>C </c><c>   4</c></rc>
    <rc><c>C </c><c>   4</c></rc>
    <rc><c>C </c><c>   4</c></rc>
    <rc><c>C </c><c>   4</c></rc>
    <rc><c>C </c><c>   4</c></rc>
    <rc><c>C </c><c>   4</c></rc>
    <rc><c>C </c><c>   4</c></rc>
    <rc><c>C </c><c>   4</c></rc>
    <rc><c>C </c><c>   4</c></rc>
    <rc><c>C </c><c>   4</c></rc>
    <rc><c>C </c><c>   4</c></rc>
    <rc><c>C </c><c>   4</c></rc>
    <rc><c>C </c><c>   4</c></rc>
    <rc><c>C </c><c>   4</c></rc>
    <rc><c>C </c><c>   4</c></rc>
    <rc><c>C </c><c>   4</c></rc>
    <rc><c>C </c><c>   4</c></rc>
    <rc><c>C </c><c>   4</c></rc>
    <rc><c>C </c><c>   4</c></rc>
    <rc><c>C </c><c>   4</c></rc>
    <rc><c>C </c><c>   4</c></rc>
    <rc><c>C </c><c>   4</c></rc>
    <rc><c>C </c><c>   4</c></rc>
    <rc><c>C </c><c>   4</c></rc>
    <rc><c>C </c><c>   4</c></rc>
    <rc><c>C </c><c>   4</c></rc>
    <rc><c>C </c><c>   4</c></rc>
    <rc><c>C </c><c>   4</c></rc>
    <rc><c>C </c><c>   4</c></rc>
    <rc><c>C </c><c>   4</c></rc>
    <rc><c>C </c><c>   4</c></rc>
    <rc><c>C </c><c>   4</c></rc>
    <rc><c>C </c><c>   4</c></rc>
    <rc><c>C </c><c>   4</c></rc>
    <rc><c>C </c><c>   4</c></rc>
    <rc><c>C </c><c>   4</c></rc>
    <rc><c>C </c><c>   4</c></rc>
    <rc><c>C </c><c>   4</c></rc>
    <rc><c>C </c><c>   4</c></rc>
    <rc><c>C </c><c>   4</c></rc>
    <rc><c>C </c><c>   4</c></rc>
    <rc><c>C </c><c>   4</c></rc>
    <rc><c>C </c><c>   4</c></rc>
    <rc><c>C </c><c>   4</c></rc>
   </set>
  </array>
  <array name="atomtypes" >
   <dimension dim="1">type</dimension>
   <field type="int">atomspertype</field>
   <field type="string">element</field>
   <field>mass</field>
   <field>valence</field>
   <field type="string">pseudopotential</field>
   <set>
    <rc><c>  12</c><c>O </c><c>     16.00000000</c><c>      6.00000000</c><c>  PAW_PBE O 08Apr2002                   </c></rc>
    <rc><c>  30</c><c>H </c><c>      1.00000000</c><c>      1.00000000</c><c>  PAW_PBE H 15Jun2001                   </c></rc>
    <rc><c>  24</c><c>N </c><c>     14.00100000</c><c>      5.00000000</c><c>  PAW_PBE N 08Apr2002                   </c></rc>
    <rc><c>  60</c><c>C </c><c>     12.01100000</c><c>      4.00000000</c><c>  PAW_PBE C 08Apr2002                   </c></rc>
   </set>
  </array>
 </atominfo>
 <structure name="initialpos" >
  <crystal>
   <varray name="basis" >
    <v>      22.67462876       0.06200848       0.00000000 </v>
    <v>     -11.28424343      19.37244757       0.00000000 </v>
    <v>       0.00000000       0.00000000      20.00000000 </v>
   </varray>
   <i name="volume">   8799.25551609 </i>
   <varray name="rec_basis" >
    <v>       0.04403202       0.02564818       0.00000000 </v>
    <v>      -0.00014094       0.05153761       0.00000000 </v>
    <v>       0.00000000       0.00000000       0.05000000 </v>
   </varray>
  </crystal>
  <varray name="positions" >
   <v>       0.68602682       0.17282754       0.69576477 </v>
   <v>       0.79395518       0.20473923       0.67705071 </v>
   <v>       0.81612865       0.54246307       0.60990687 </v>
   <v>       0.88422612       0.61692092       0.53411798 </v>
   <v>       0.55648946       0.34693099       0.71837002 </v>
   <v>       0.48045941       0.37577356       0.68744856 </v>
   <v>       0.57823278       0.70346680       0.56176293 </v>
   <v>       0.29419891       0.76596412       0.70715062 </v>
   <v>       0.30816538       0.86783051       0.67976728 </v>
   <v>       0.49609535       0.69416880       0.62815151 </v>
   <v>       0.14280410       0.46341155       0.66991409 </v>
   <v>       0.17434355       0.38497848       0.66118796 </v>
   <v>       0.70094315       0.30531606       0.44032423 </v>
   <v>       0.91830425       0.37121560       0.52561892 </v>
   <v>       0.92721915       0.55881094       0.46127789 </v>
   <v>       0.70878941       0.37730103       0.40369835 </v>
   <v>       0.74910109       0.23250294       0.40669994 </v>
   <v>       0.65601720       0.47824098       0.35685674 </v>
   <v>       0.57862800       0.24467820       0.66227632 </v>
   <v>       0.53142824       0.94521459       0.49732592 </v>
   <v>       0.65280850       0.39485584       0.51548953 </v>
   <v>       0.58489793       0.55396177       0.44964277 </v>
   <v>       0.58702004       0.04284528       0.52258588 </v>
   <v>       0.64764278       0.23311371       0.65960732 </v>
   <v>       0.53961011       0.61240085       0.47405450 </v>
   <v>       0.58461187       0.32927429       0.55251051 </v>
   <v>       0.39736045       0.14616777       0.50605722 </v>
   <v>       0.46279049       0.80622445       0.36937224 </v>
   <v>       0.21278862       0.63935590       0.63156931 </v>
   <v>       0.35375161       0.71404487       0.49916173 </v>
   <v>       0.40491632       0.05256813       0.55403413 </v>
   <v>       0.28799466       0.58000635       0.43759749 </v>
   <v>       0.35249030       0.41972125       0.50072495 </v>
   <v>       0.21649336       0.56696481       0.61859367 </v>
   <v>       0.35031941       0.94779968       0.55994364 </v>
   <v>       0.28306410       0.71576507       0.51981746 </v>
   <v>       0.40945147       0.38451223       0.54395744 </v>
   <v>       0.35950447       0.64717596       0.40716818 </v>
   <v>       0.22312963       0.45452059       0.38850049 </v>
   <v>       0.01434979       0.60650485       0.52776129 </v>
   <v>       0.02470787       0.42350592       0.48794924 </v>
   <v>       0.11722536       0.71374332       0.47020188 </v>
   <v>       0.72470436       0.35746846       0.44050693 </v>
   <v>       0.78421188       0.27239089       0.56767183 </v>
   <v>       0.73816822       0.19661770       0.66021545 </v>
   <v>       0.71794500       0.52698423       0.51201350 </v>
   <v>       0.82986665       0.56651737       0.55300630 </v>
   <v>       0.68446651       0.17827781       0.48524126 </v>
   <v>       0.74504544       0.48463046       0.39317805 </v>
   <v>       0.60596787       0.22807421       0.63541220 </v>
   <v>       0.60138935       0.36911387       0.51996374 </v>
   <v>       0.49158767       0.23557373       0.63776526 </v>
   <v>       0.50986822       0.34200985       0.68237731 </v>
   <v>       0.49118795       0.78242111       0.52926419 </v>
   <v>       0.43165954       0.24920944       0.52470225 </v>
   <v>       0.46822657       0.72192208       0.40523006 </v>
   <v>       0.20281943       0.60011674       0.59937313 </v>
   <v>       0.32983157       0.74211898       0.49852251 </v>
   <v>       0.33906427       0.61064290       0.44354926 </v>
   <v>       0.18951146       0.71310537       0.61626430 </v>
   <v>       0.28503797       0.80524816       0.67094754 </v>
   <v>       0.52666759       0.70729993       0.57447768 </v>
   <v>       0.24917068       0.45987698       0.55300263 </v>
   <v>       0.16784422       0.43285058       0.63968375 </v>
   <v>       0.21488433       0.78648596       0.50018026 </v>
   <v>       0.16295814       0.46544298       0.46027121 </v>
   <v>       0.89577255       0.39820469       0.50051904 </v>
   <v>       0.82746690       0.35975411       0.48187058 </v>
   <v>       0.79392374       0.39313509       0.45403659 </v>
   <v>       0.67276784       0.17356081       0.55182105 </v>
   <v>       0.78543322       0.28697850       0.50273591 </v>
   <v>       0.73117658       0.21561501       0.59087503 </v>
   <v>       0.78873204       0.49989979       0.44431464 </v>
   <v>       0.66965478       0.50045312       0.46427041 </v>
   <v>       0.77717394       0.53159424       0.50032485 </v>
   <v>       0.93452795       0.46971768       0.49060432 </v>
   <v>       0.83093767       0.46661672       0.45041548 </v>
   <v>       0.90023560       0.50293499       0.46641730 </v>
   <v>       0.74028929       0.23182305       0.46051804 </v>
   <v>       0.68875015       0.48909905       0.40054509 </v>
   <v>       0.43902043       0.84934137       0.49584512 </v>
   <v>       0.47664458       0.92017299       0.50564631 </v>
   <v>       0.45938657       0.07306210       0.56129289 </v>
   <v>       0.49741601       0.13952251       0.58791022 </v>
   <v>       0.56845903       0.16726104       0.60189169 </v>
   <v>       0.55968545       0.50388204       0.47439431 </v>
   <v>       0.59736111       0.47122818       0.48488295 </v>
   <v>       0.56666054       0.40499356       0.51518748 </v>
   <v>       0.46704867       0.30450309       0.56461065 </v>
   <v>       0.46931016       0.18595295       0.59104535 </v>
   <v>       0.48676553       0.29112803       0.62686712 </v>
   <v>       0.47779676       0.69048318       0.45779654 </v>
   <v>       0.47057823       0.80701976       0.47851484 </v>
   <v>       0.49920769       0.72909751       0.51787485 </v>
   <v>       0.44674560       0.95859248       0.52784152 </v>
   <v>       0.48845495       0.03251847       0.54455212 </v>
   <v>       0.60014854       0.13289886       0.57086358 </v>
   <v>       0.56011741       0.06704291       0.54426728 </v>
   <v>       0.45189706       0.50966906       0.48340284 </v>
   <v>       0.48434887       0.58101774       0.47097993 </v>
   <v>       0.44771726       0.61444031       0.45766155 </v>
   <v>       0.49117285       0.47422151       0.49453934 </v>
   <v>       0.49745996       0.37465819       0.53542238 </v>
   <v>       0.46162446       0.40920656       0.52548252 </v>
   <v>       0.42846340       0.18985763       0.53877290 </v>
   <v>       0.46876518       0.78141205       0.41378985 </v>
   <v>       0.36766110       0.81263913       0.50785616 </v>
   <v>       0.37527223       0.57633972       0.45518970 </v>
   <v>       0.34232084       0.50597203       0.47406669 </v>
   <v>       0.38040456       0.47411812       0.48725538 </v>
   <v>       0.26344113       0.80906108       0.54771436 </v>
   <v>       0.24300946       0.77550303       0.60997858 </v>
   <v>       0.26850887       0.47250025       0.48895079 </v>
   <v>       0.19123756       0.45639921       0.57021537 </v>
   <v>       0.37600229       0.92184000       0.53941344 </v>
   <v>       0.33677387       0.85102048       0.52953128 </v>
   <v>       0.21769145       0.46241388       0.44156706 </v>
   <v>       0.15596878       0.72849479       0.50902063 </v>
   <v>       0.13975663       0.57021893       0.56931401 </v>
   <v>       0.10610824       0.60888463       0.55801856 </v>
   <v>       0.04028217       0.57666037       0.53113768 </v>
   <v>       0.14741470       0.68448480       0.56399042 </v>
   <v>       0.15291329       0.47260416       0.52563162 </v>
   <v>       0.00671932       0.50737356       0.51099881 </v>
   <v>       0.04516426       0.47401964       0.51126106 </v>
   <v>       0.10989796       0.50347220       0.53962015 </v>
  </varray>
 </structure>
 <calculation>
  <scstep>
   <time name="dav">  888.98  898.83</time>
   <time name="total">  889.12  898.98</time>
   <energy>
    <i name="alphaZ">    110.27903716 </i>
    <i name="ewald">  61332.63949382 </i>
    <i name="hartreedc"> -78503.13760713 </i>
    <i name="XCdc">   1733.07950122 </i>
    <i name="pawpsdc">  43740.43569343 </i>
    <i name="pawaedc"> -43838.59922821 </i>
    <i name="eentropy">     -0.00000000 </i>
    <i name="bandstr">  -6220.47239799 </i>
    <i name="atom">  20740.61179887 </i>
    <i name="e_fr_energy">   -905.16370884 </i>
    <i name="e_wo_entrp">   -905.16370884 </i>
    <i name="e_0_energy">   -905.16370884 </i>
   </energy>
  </scstep>
  <scstep>
   <time name="dav"> 1024.99 1035.80</time>
   <time name="total"> 1025.00 1035.80</time>
   <energy>
    <i name="e_fr_energy">   -906.63104684 </i>
    <i name="e_wo_entrp">   -906.63104684 </i>
    <i name="e_0_energy">   -906.63104684 </i>
   </energy>
  </scstep>
  <scstep>
   <time name="dav"> 1159.45 1173.27</time>
   <time name="total"> 1159.45 1173.27</time>
   <energy>
    <i name="e_fr_energy">   -906.67101179 </i>
    <i name="e_wo_entrp">   -906.67101179 </i>
    <i name="e_0_energy">   -906.67101179 </i>
   </energy>
  </scstep>
  <scstep>
   <time name="dav"> 1013.41 1025.87</time>
   <time name="total"> 1013.42 1025.88</time>
   <energy>
    <i name="e_fr_energy">   -906.67161105 </i>
    <i name="e_wo_entrp">   -906.67161105 </i>
    <i name="e_0_energy">   -906.67161105 </i>
   </energy>
  </scstep>
  <scstep>
   <time name="dav"> 1038.15 1050.13</time>
   <time name="total"> 1038.15 1050.14</time>
   <energy>
    <i name="e_fr_energy">   -906.67164229 </i>
    <i name="e_wo_entrp">   -906.67164229 </i>
    <i name="e_0_energy">   -906.67164229 </i>
   </energy>
  </scstep>
  <scstep>
   <time name="dav">  780.31  789.56</time>
   <time name="total">  780.31  789.56</time>
   <energy>
    <i name="alphaZ">    110.27903716 </i>
    <i name="ewald">  61332.63949382 </i>
    <i name="hartreedc"> -78503.13760713 </i>
    <i name="XCdc">   1733.07950122 </i>
    <i name="pawpsdc">  43740.43569343 </i>
    <i name="pawaedc"> -43838.59922821 </i>
    <i name="eentropy">     -0.00000000 </i>
    <i name="bandstr">  -6221.98033221 </i>
    <i name="atom">  20740.61179887 </i>
    <i name="e_fr_energy">   -906.67164306 </i>
    <i name="e_wo_entrp">   -906.67164306 </i>
    <i name="e_0_energy">   -906.67164306 </i>
   </energy>
  </scstep>
  <structure>
   <crystal>
    <varray name="basis" >
     <v>      22.67462876       0.06200848       0.00000000 </v>
     <v>     -11.28424343      19.37244757       0.00000000 </v>
     <v>       0.00000000       0.00000000      20.00000000 </v>
    </varray>
    <i name="volume">   8799.25551609 </i>
    <varray name="rec_basis" >
     <v>       0.04403202       0.02564818       0.00000000 </v>
     <v>      -0.00014094       0.05153761       0.00000000 </v>
     <v>       0.00000000       0.00000000       0.05000000 </v>
    </varray>
   </crystal>
   <varray name="positions" >
    <v>       0.68602682       0.17282754       0.69576477 </v>
    <v>       0.79395518       0.20473923       0.67705071 </v>
    <v>       0.81612865       0.54246307       0.60990687 </v>
    <v>       0.88422612       0.61692092       0.53411798 </v>
    <v>       0.55648946       0.34693099       0.71837002 </v>
    <v>       0.48045941       0.37577356       0.68744856 </v>
    <v>       0.57823278       0.70346680       0.56176293 </v>
    <v>       0.29419891       0.76596412       0.70715062 </v>
    <v>       0.30816538       0.86783051       0.67976728 </v>
    <v>       0.49609535       0.69416880       0.62815151 </v>
    <v>       0.14280410       0.46341155       0.66991409 </v>
    <v>       0.17434355       0.38497848       0.66118796 </v>
    <v>       0.70094315       0.30531606       0.44032423 </v>
    <v>       0.91830425       0.37121560       0.52561892 </v>
    <v>       0.92721915       0.55881094       0.46127789 </v>
    <v>       0.70878941       0.37730103       0.40369835 </v>
    <v>       0.74910109       0.23250294       0.40669994 </v>
    <v>       0.65601720       0.47824098       0.35685674 </v>
    <v>       0.57862800       0.24467820       0.66227632 </v>
    <v>       0.53142824       0.94521459       0.49732592 </v>
    <v>       0.65280850       0.39485584       0.51548953 </v>
    <v>       0.58489793       0.55396177       0.44964277 </v>
    <v>       0.58702004       0.04284528       0.52258588 </v>
    <v>       0.64764278       0.23311371       0.65960732 </v>
    <v>       0.53961011       0.61240085       0.47405450 </v>
    <v>       0.58461187       0.32927429       0.55251051 </v>
    <v>       0.39736045       0.14616777       0.50605722 </v>
    <v>       0.46279049       0.80622445       0.36937224 </v>
    <v>       0.21278862       0.63935590       0.63156931 </v>
    <v>       0.35375161       0.71404487       0.49916173 </v>
    <v>       0.40491632       0.05256813       0.55403413 </v>
    <v>       0.28799466       0.58000635       0.43759749 </v>
    <v>       0.35249030       0.41972125       0.50072495 </v>
    <v>       0.21649336       0.56696481       0.61859367 </v>
    <v>       0.35031941       0.94779968       0.55994364 </v>
    <v>       0.28306410       0.71576507       0.51981746 </v>
    <v>       0.40945147       0.38451223       0.54395744 </v>
    <v>       0.35950447       0.64717596       0.40716818 </v>
    <v>       0.22312963       0.45452059       0.38850049 </v>
    <v>       0.01434979       0.60650485       0.52776129 </v>
    <v>       0.02470787       0.42350592       0.48794924 </v>
    <v>       0.11722536       0.71374332       0.47020188 </v>
    <v>       0.72470436       0.35746846       0.44050693 </v>
    <v>       0.78421188       0.27239089       0.56767183 </v>
    <v>       0.73816822       0.19661770       0.66021545 </v>
    <v>       0.71794500       0.52698423       0.51201350 </v>
    <v>       0.82986665       0.56651737       0.55300630 </v>
    <v>       0.68446651       0.17827781       0.48524126 </v>
    <v>       0.74504544       0.48463046       0.39317805 </v>
    <v>       0.60596787       0.22807421       0.63541220 </v>
    <v>       0.60138935       0.36911387       0.51996374 </v>
    <v>       0.49158767       0.23557373       0.63776526 </v>
    <v>       0.50986822       0.34200985       0.68237731 </v>
    <v>       0.49118795       0.78242111       0.52926419 </v>
    <v>       0.43165954       0.24920944       0.52470225 </v>
    <v>       0.46822657       0.72192208       0.40523006 </v>
    <v>       0.20281943       0.60011674       0.59937313 </v>
    <v>       0.32983157       0.74211898       0.49852251 </v>
    <v>       0.33906427       0.61064290       0.44354926 </v>
    <v>       0.18951146       0.71310537       0.61626430 </v>
    <v>       0.28503797       0.80524816       0.67094754 </v>
    <v>       0.52666759       0.70729993       0.57447768 </v>
    <v>       0.24917068       0.45987698       0.55300263 </v>
    <v>       0.16784422       0.43285058       0.63968375 </v>
    <v>       0.21488433       0.78648596       0.50018026 </v>
    <v>       0.16295814       0.46544298       0.46027121 </v>
    <v>       0.89577255       0.39820469       0.50051904 </v>
    <v>       0.82746690       0.35975411       0.48187058 </v>
    <v>       0.79392374       0.39313509       0.45403659 </v>
    <v>       0.67276784       0.17356081       0.55182105 </v>
    <v>       0.78543322       0.28697850       0.50273591 </v>
    <v>       0.73117658       0.21561501       0.59087503 </v>
    <v>       0.78873204       0.49989979       0.44431464 </v>
    <v>       0.66965478       0.50045312       0.46427041 </v>
    <v>       0.77717394       0.53159424       0.50032485 </v>
    <v>       0.93452795       0.46971768       0.49060432 </v>
    <v>       0.83093767       0.46661672       0.45041548 </v>
    <v>       0.90023560       0.50293499       0.46641730 </v>
    <v>       0.74028929       0.23182305       0.46051804 </v>
    <v>       0.68875015       0.48909905       0.40054509 </v>
    <v>       0.43902043       0.84934137       0.49584512 </v>
    <v>       0.47664458       0.92017299       0.50564631 </v>
    <v>       0.45938657       0.07306210       0.56129289 </v>
    <v>       0.49741601       0.13952251       0.58791022 </v>
    <v>       0.56845903       0.16726104       0.60189169 </v>
    <v>       0.55968545       0.50388204       0.47439431 </v>
    <v>       0.59736111       0.47122818       0.48488295 </v>
    <v>       0.56666054       0.40499356       0.51518748 </v>
    <v>       0.46704867       0.30450309       0.56461065 </v>
    <v>       0.46931016       0.18595295       0.59104535 </v>
    <v>       0.48676553       0.29112803       0.62686712 </v>
    <v>       0.47779676       0.69048318       0.45779654 </v>
    <v>       0.47057823       0.80701976       0.47851484 </v>
    <v>       0.49920769       0.72909751       0.51787485 </v>
    <v>       0.44674560       0.95859248       0.52784152 </v>
    <v>       0.48845495       0.03251847       0.54455212 </v>
    <v>       0.60014854       0.13289886       0.57086358 </v>
    <v>       0.56011741       0.06704291       0.54426728 </v>
    <v>       0.45189706       0.50966906       0.48340284 </v>
    <v>       0.48434887       0.58101774       0.47097993 </v>
    <v>       0.44771726       0.61444031       0.45766155 </v>
    <v>       0.49117285       0.47422151       0.49453934 </v>
    <v>       0.49745996       0.37465819       0.53542238 </v>
    <v>       0.46162446       0.40920656       0.52548252 </v>
    <v>       0.42846340       0.18985763       0.53877290 </v>
    <v>       0.46876518       0.78141205       0.41378985 </v>
    <v>       0.36766110       0.81263913       0.50785616 </v>
    <v>       0.37527223       0.57633972       0.45518970 </v>
    <v>       0.34232084       0.50597203       0.47406669 </v>
    <v>       0.38040456       0.47411812       0.48725538 </v>
    <v>       0.26344113       0.80906108       0.54771436 </v>
    <v>       0.24300946       0.77550303       0.60997858 </v>
    <v>       0.26850887       0.47250025       0.48895079 </v>
    <v>       0.19123756       0.45639921       0.57021537 </v>
    <v>       0.37600229       0.92184000       0.53941344 </v>
    <v>       0.33677387       0.85102048       0.52953128 </v>
    <v>       0.21769145       0.46241388       0.44156706 </v>
    <v>       0.15596878       0.72849479       0.50902063 </v>
    <v>       0.13975663       0.57021893       0.56931401 </v>
    <v>       0.10610824       0.60888463       0.55801856 </v>
    <v>       0.04028217       0.57666037       0.53113768 </v>
    <v>       0.14741470       0.68448480       0.56399042 </v>
    <v>       0.15291329       0.47260416       0.52563162 </v>
    <v>       0.00671932       0.50737356       0.51099881 </v>
    <v>       0.04516426       0.47401964       0.51126106 </v>
    <v>       0.10989796       0.50347220       0.53962015 </v>
   </varray>
  </structure>
  <varray name="forces" >
   <v>      -0.00457075      -0.00142001       0.00105696 </v>
   <v>      -0.00840915       0.00086936      -0.00228474 </v>
   <v>      -0.00059518       0.00043296      -0.00136910 </v>
   <v>       0.00195741      -0.00071049       0.00005831 </v>
   <v>      -0.00631910       0.00599819      -0.00308197 </v>
   <v>      -0.00091925       0.00699349      -0.00229279 </v>
   <v>       0.00056382       0.00331550      -0.00330288 </v>
   <v>       0.00158769       0.00015262       0.00016746 </v>
   <v>      -0.00123774      -0.00531304       0.00073179 </v>
   <v>       0.00499996      -0.00110908      -0.00347515 </v>
   <v>       0.00213655       0.00181355      -0.00002451 </v>
   <v>      -0.00665013       0.00378117      -0.00264894 </v>
   <v>       0.00074281      -0.00132810      -0.00251329 </v>
   <v>       0.00057371       0.00034715       0.00238372 </v>
   <v>      -0.00236340      -0.00303529      -0.00017953 </v>
   <v>       0.00213641      -0.00461288       0.00084160 </v>
   <v>       0.00126601       0.00073318       0.00149499 </v>
   <v>       0.00236115      -0.00074054      -0.00041767 </v>
   <v>      -0.00185963      -0.00041503      -0.00027777 </v>
   <v>      -0.00071332      -0.00058668       0.00014663 </v>
   <v>      -0.00111078       0.00108363      -0.00148098 </v>
   <v>       0.00092046      -0.00118907      -0.00311763 </v>
   <v>      -0.00019492       0.00014423       0.00065673 </v>
   <v>       0.00169234       0.00045656       0.00191981 </v>
   <v>      -0.00148045       0.00121259      -0.00132506 </v>
   <v>      -0.00098551       0.00161754       0.00114347 </v>
   <v>      -0.00109210      -0.00040426       0.00075090 </v>
   <v>      -0.00154465      -0.00138895      -0.00204945 </v>
   <v>       0.00086252       0.00024107      -0.00021893 </v>
   <v>      -0.00169177       0.00105271      -0.00172317 </v>
   <v>      -0.00173318       0.00018664       0.00067886 </v>
   <v>      -0.00071683      -0.00103346       0.00037453 </v>
   <v>      -0.00002686      -0.00030059      -0.00009360 </v>
   <v>      -0.00032121      -0.00089033      -0.00108434 </v>
   <v>       0.00100451      -0.00023577      -0.00034766 </v>
   <v>      -0.00072318       0.00068367      -0.00055633 </v>
   <v>       0.00011432       0.00073536       0.00134083 </v>
   <v>      -0.00015576      -0.00026355       0.00094330 </v>
   <v>      -0.00049974      -0.00128119      -0.00015182 </v>
   <v>      -0.00056627       0.00077887       0.00113301 </v>
   <v>      -0.00007691      -0.00160038       0.00001327 </v>
   <v>      -0.00009387      -0.00050674       0.00022234 </v>
   <v>      -0.00479397       0.00283889      -0.00127014 </v>
   <v>       0.00309866      -0.00048042      -0.00239531 </v>
   <v>       0.00620679       0.00403662       0.00399507 </v>
   <v>       0.00369510      -0.00195761       0.00257572 </v>
   <v>       0.00133236      -0.00085158       0.00226907 </v>
   <v>       0.00268031      -0.00314776       0.00268863 </v>
   <v>       0.00012119       0.00058455       0.00066845 </v>
   <v>       0.00202519       0.00454183       0.00464589 </v>
   <v>      -0.00025522       0.00199695      -0.00163010 </v>
   <v>       0.00159523       0.00073409      -0.00065991 </v>
   <v>       0.00767375       0.00395784       0.00409939 </v>
   <v>       0.00064900       0.00300304       0.00086336 </v>
   <v>       0.00220103      -0.00058270       0.00046699 </v>
   <v>       0.00028715       0.00086727      -0.00154592 </v>
   <v>       0.00063724       0.00104482       0.00157943 </v>
   <v>       0.00083931      -0.00551094       0.00176097 </v>
   <v>      -0.00034745       0.00188756      -0.00240159 </v>
   <v>      -0.00092933      -0.00041562       0.00026396 </v>
   <v>       0.00026556       0.00584495       0.00304690 </v>
   <v>      -0.00233159      -0.00147485      -0.00653755 </v>
   <v>       0.00064387       0.00040921       0.00119131 </v>
   <v>       0.00321508      -0.00567842       0.00396369 </v>
   <v>      -0.00364763      -0.00099621       0.00018786 </v>
   <v>       0.00087124      -0.00007632      -0.00080742 </v>
   <v>      -0.00068352      -0.00224510       0.00064333 </v>
   <v>       0.00232050      -0.00032384      -0.00112755 </v>
   <v>       0.00110369      -0.00260270       0.00034319 </v>
   <v>      -0.00031256      -0.00114143       0.00112489 </v>
   <v>      -0.00050037      -0.00121113       0.00161471 </v>
   <v>      -0.00268774      -0.00063846       0.00195287 </v>
   <v>       0.00087783       0.00104602      -0.00109499 </v>
   <v>      -0.00037734       0.00004750       0.00083287 </v>
   <v>      -0.00003668      -0.00076883      -0.00102350 </v>
   <v>       0.00064519      -0.00048370       0.00080923 </v>
   <v>       0.00070743      -0.00116986       0.00018517 </v>
   <v>      -0.00012056      -0.00197697       0.00012471 </v>
   <v>       0.00006087      -0.00219915       0.00013385 </v>
   <v>       0.00057580       0.00395320       0.00077702 </v>
   <v>      -0.00072895      -0.00226977      -0.00097949 </v>
   <v>      -0.00070176       0.00287665       0.00136464 </v>
   <v>       0.00001853      -0.00241821      -0.00088064 </v>
   <v>       0.00158985       0.00183131       0.00150174 </v>
   <v>      -0.00071707      -0.00162305      -0.00010943 </v>
   <v>       0.00034827      -0.00043158      -0.00111803 </v>
   <v>      -0.00084204       0.00025187       0.00144850 </v>
   <v>       0.00059696      -0.00040346       0.00034109 </v>
   <v>       0.00256069      -0.00080942      -0.00106706 </v>
   <v>       0.00082582       0.00082966       0.00110501 </v>
   <v>       0.00238232       0.00070497      -0.00030437 </v>
   <v>       0.00066365      -0.00048006      -0.00011674 </v>
   <v>      -0.00259312       0.00023060       0.00017732 </v>
   <v>      -0.00256653       0.00042847       0.00007333 </v>
   <v>       0.00280510      -0.00026926      -0.00064558 </v>
   <v>      -0.00211638       0.00060940       0.00016803 </v>
   <v>      -0.00206194       0.00320097       0.00101636 </v>
   <v>      -0.00058098      -0.00176297      -0.00114829 </v>
   <v>       0.00012108       0.00015881      -0.00127946 </v>
   <v>       0.00054649       0.00031320      -0.00061053 </v>
   <v>      -0.00001051       0.00016622      -0.00011485 </v>
   <v>      -0.00073680       0.00012437      -0.00212113 </v>
   <v>      -0.00018255       0.00028277      -0.00146288 </v>
   <v>      -0.00037820      -0.00142639      -0.00024038 </v>
   <v>       0.00009917       0.00044959       0.00094382 </v>
   <v>      -0.00077284      -0.00078905      -0.00105153 </v>
   <v>      -0.00096704       0.00331011       0.00070503 </v>
   <v>       0.00025001      -0.00086400      -0.00029115 </v>
   <v>       0.00095874       0.00001428       0.00081037 </v>
   <v>      -0.00050750      -0.00073942       0.00007533 </v>
   <v>       0.00101795       0.00132222      -0.00037083 </v>
   <v>      -0.00077675      -0.00270064       0.00162486 </v>
   <v>       0.00147409      -0.00047607       0.00195278 </v>
   <v>       0.00016647      -0.00083523      -0.00078236 </v>
   <v>      -0.00196812       0.00099775       0.00030536 </v>
   <v>       0.00060860      -0.00328470       0.00007691 </v>
   <v>      -0.00042208       0.00055480      -0.00084272 </v>
   <v>       0.00084466       0.00220769       0.00001500 </v>
   <v>       0.00049948      -0.00111923      -0.00032392 </v>
   <v>      -0.00033134       0.00031016      -0.00088635 </v>
   <v>       0.00032454      -0.00032209       0.00024756 </v>
   <v>      -0.00038319      -0.00181115      -0.00059757 </v>
   <v>      -0.00052732      -0.00006914      -0.00121171 </v>
   <v>      -0.00147933      -0.00105234       0.00022690 </v>
   <v>      -0.00013537      -0.00048500      -0.00040193 </v>
   <v>       0.00021183       0.00014107       0.00042322 </v>
  </varray>
  <varray name="stress" >
   <v>      -0.05838112       0.00920263       0.05040501 </v>
   <v>       0.00920263      -0.06632970      -0.00586256 </v>
   <v>       0.05040500      -0.00586256      -0.33115696 </v>
  </varray>
  <energy>
   <i name="e_fr_energy">   -910.28423371 </i>
   <i name="e_wo_entrp">   -910.28423371 </i>
   <i name="e_0_energy">     -0.00000000 </i>
  </energy>
  <time name="totalsc"> 6911.34 6994.56</time>
  <eigenvalues>
   <array>
    <dimension dim="1">band</dimension>
    <dimension dim="2">kpoint</dimension>
    <dimension dim="3">spin</dimension>
    <field>eigene</field>
    <field>occ</field>
    <set>
     <set comment="spin 1">
      <set comment="kpoint 1">
       <r>  -30.6442    1.0000 </r>
       <r>  -30.5327    1.0000 </r>
       <r>  -30.5317    1.0000 </r>
       <r>  -30.4991    1.0000 </r>
       <r>  -30.4026    1.0000 </r>
       <r>  -30.3044    1.0000 </r>
       <r>  -26.3115    1.0000 </r>
       <r>  -26.2123    1.0000 </r>
       <r>  -26.2045    1.0000 </r>
       <r>  -26.1674    1.0000 </r>
       <r>  -26.0712    1.0000 </r>
       <r>  -25.9709    1.0000 </r>
       <r>  -25.1658    1.0000 </r>
       <r>  -25.1401    1.0000 </r>
       <r>  -25.1114    1.0000 </r>
       <r>  -25.0904    1.0000 </r>
       <r>  -25.0698    1.0000 </r>
       <r>  -25.0336    1.0000 </r>
       <r>  -23.4099    1.0000 </r>
       <r>  -23.3513    1.0000 </r>
       <r>  -23.3148    1.0000 </r>
       <r>  -23.2863    1.0000 </r>
       <r>  -23.1360    1.0000 </r>
       <r>  -23.0976    1.0000 </r>
       <r>  -23.0282    1.0000 </r>
       <r>  -23.0125    1.0000 </r>
       <r>  -22.8692    1.0000 </r>
       <r>  -22.8584    1.0000 </r>
       <r>  -22.7703    1.0000 </r>
       <r>  -22.7648    1.0000 </r>
       <r>  -21.3856    1.0000 </r>
       <r>  -21.2817    1.0000 </r>
       <r>  -21.2551    1.0000 </r>
       <r>  -20.9839    1.0000 </r>
       <r>  -20.9048    1.0000 </r>
       <r>  -20.7663    1.0000 </r>
       <r>  -20.7476    1.0000 </r>
       <r>  -20.6929    1.0000 </r>
       <r>  -20.4715    1.0000 </r>
       <r>  -20.4297    1.0000 </r>
       <r>  -20.1811    1.0000 </r>
       <r>  -20.1447    1.0000 </r>
       <r>  -19.1777    1.0000 </r>
       <r>  -19.1569    1.0000 </r>
       <r>  -19.0764    1.0000 </r>
       <r>  -19.0673    1.0000 </r>
       <r>  -19.0279    1.0000 </r>
       <r>  -18.6961    1.0000 </r>
       <r>  -18.6412    1.0000 </r>
       <r>  -18.6061    1.0000 </r>
       <r>  -18.5131    1.0000 </r>
       <r>  -18.0493    1.0000 </r>
       <r>  -17.9797    1.0000 </r>
       <r>  -17.7982    1.0000 </r>
       <r>  -17.7714    1.0000 </r>
       <r>  -17.7301    1.0000 </r>
       <r>  -17.5721    1.0000 </r>
       <r>  -17.4567    1.0000 </r>
       <r>  -17.3013    1.0000 </r>
       <r>  -17.2421    1.0000 </r>
       <r>  -16.7152    1.0000 </r>
       <r>  -16.6956    1.0000 </r>
       <r>  -16.6126    1.0000 </r>
       <r>  -16.5274    1.0000 </r>
       <r>  -16.4128    1.0000 </r>
       <r>  -16.3516    1.0000 </r>
       <r>  -15.7402    1.0000 </r>
       <r>  -15.6235    1.0000 </r>
       <r>  -15.5740    1.0000 </r>
       <r>  -15.4669    1.0000 </r>
       <r>  -15.4594    1.0000 </r>
       <r>  -15.3688    1.0000 </r>
       <r>  -15.3003    1.0000 </r>
       <r>  -15.1948    1.0000 </r>
       <r>  -15.1679    1.0000 </r>
       <r>  -15.1464    1.0000 </r>
       <r>  -15.0003    1.0000 </r>
       <r>  -14.8707    1.0000 </r>
       <r>  -14.7147    1.0000 </r>
       <r>  -14.6412    1.0000 </r>
       <r>  -14.5500    1.0000 </r>
       <r>  -14.3173    1.0000 </r>
       <r>  -14.2578    1.0000 </r>
       <r>  -14.1765    1.0000 </r>
       <r>  -13.6844    1.0000 </r>
       <r>  -13.6378    1.0000 </r>
       <r>  -13.6185    1.0000 </r>
       <r>  -13.5842    1.0000 </r>
       <r>  -13.5764    1.0000 </r>
       <r>  -13.5001    1.0000 </r>
       <r>  -13.4536    1.0000 </r>
       <r>  -13.4506    1.0000 </r>
       <r>  -13.3844    1.0000 </r>
       <r>  -13.2750    1.0000 </r>
       <r>  -13.1989    1.0000 </r>
       <r>  -13.1418    1.0000 </r>
       <r>  -13.0722    1.0000 </r>
       <r>  -13.0581    1.0000 </r>
       <r>  -13.0074    1.0000 </r>
       <r>  -12.9669    1.0000 </r>
       <r>  -12.8973    1.0000 </r>
       <r>  -12.8709    1.0000 </r>
       <r>  -12.8036    1.0000 </r>
       <r>  -12.7320    1.0000 </r>
       <r>  -12.7111    1.0000 </r>
       <r>  -12.6662    1.0000 </r>
       <r>  -12.6179    1.0000 </r>
       <r>  -12.5891    1.0000 </r>
       <r>  -12.5643    1.0000 </r>
       <r>  -12.4987    1.0000 </r>
       <r>  -12.4922    1.0000 </r>
       <r>  -12.4678    1.0000 </r>
       <r>  -12.4514    1.0000 </r>
       <r>  -12.3699    1.0000 </r>
       <r>  -12.2942    1.0000 </r>
       <r>  -12.2769    1.0000 </r>
       <r>  -12.2012    1.0000 </r>
       <r>  -12.1316    1.0000 </r>
       <r>  -12.0595    1.0000 </r>
       <r>  -12.0311    1.0000 </r>
       <r>  -12.0187    1.0000 </r>
       <r>  -11.9834    1.0000 </r>
       <r>  -11.9479    1.0000 </r>
       <r>  -11.8842    1.0000 </r>
       <r>  -11.8670    1.0000 </r>
       <r>  -11.7770    1.0000 </r>
       <r>  -11.5916    1.0000 </r>
       <r>  -11.5375    1.0000 </r>
       <r>  -11.4234    1.0000 </r>
       <r>  -11.3587    1.0000 </r>
       <r>  -11.2755    1.0000 </r>
       <r>  -11.2513    1.0000 </r>
       <r>  -11.1046    1.0000 </r>
       <r>  -11.0711    1.0000 </r>
       <r>  -11.0047    1.0000 </r>
       <r>  -10.9335    1.0000 </r>
       <r>  -10.8389    1.0000 </r>
       <r>  -10.8228    1.0000 </r>
       <r>  -10.7232    1.0000 </r>
       <r>  -10.6991    1.0000 </r>
       <r>  -10.6198    1.0000 </r>
       <r>  -10.5772    1.0000 </r>
       <r>  -10.5317    1.0000 </r>
       <r>  -10.3925    1.0000 </r>
       <r>  -10.3595    1.0000 </r>
       <r>  -10.2807    1.0000 </r>
       <r>  -10.2237    1.0000 </r>
       <r>  -10.1594    1.0000 </r>
       <r>  -10.0310    1.0000 </r>
       <r>   -9.9546    1.0000 </r>
       <r>   -9.9123    1.0000 </r>
       <r>   -9.8778    1.0000 </r>
       <r>   -9.7903    1.0000 </r>
       <r>   -9.6648    1.0000 </r>
       <r>   -9.6382    1.0000 </r>
       <r>   -9.5668    1.0000 </r>
       <r>   -9.5366    1.0000 </r>
       <r>   -9.4291    1.0000 </r>
[...]
       <r>   -23.9461     0.0000    36.0000 </r>
       <r>   -23.8272     0.0000    36.0000 </r>
       <r>   -23.7084     0.0000    36.0000 </r>
       <r>   -23.5896     0.0000    36.0000 </r>
       <r>   -23.4707     0.0000    36.0000 </r>
       <r>   -23.3519    24.6989    38.9352 </r>
       <r>   -23.2331    16.8296    44.0000 </r>
       <r>   -23.1142    16.9684    46.0165 </r>
       <r>   -22.9954    33.5545    51.9876 </r>
       <r>   -22.8765     2.5636    52.3046 </r>
       <r>   -22.7577    30.3347    59.6049 </r>
       <r>   -22.6389     0.0000    60.0000 </r>
       <r>   -22.5200     0.0000    60.0000 </r>
       <r>   -22.4012     0.0000    60.0000 </r>
       <r>   -22.2823     0.0000    60.0000 </r>
       <r>   -22.1635     0.0000    60.0000 </r>
       <r>   -22.0447     0.0000    60.0000 </r>
       <r>   -21.9258     0.0000    60.0000 </r>
       <r>   -21.8070     0.0000    60.0000 </r>
       <r>   -21.6882     0.0000    60.0000 </r>
       <r>   -21.5693     0.0000    60.0000 </r>
       <r>   -21.4505     0.0000    60.0000 </r>
       <r>   -21.3316    16.8296    62.0000 </r>
       <r>   -21.2128    33.6592    66.0000 </r>
       <r>   -21.0940     0.0000    66.0000 </r>
       <r>   -20.9751     6.6404    66.7891 </r>
       <r>   -20.8563    11.7811    69.4000 </r>
       <r>   -20.7375    33.0976    74.6333 </r>
       <r>   -20.6186     1.1220    76.0000 </r>
       <r>   -20.4998     0.0001    76.0000 </r>
       <r>   -20.3809    13.5754    78.3633 </r>
       <r>   -20.2621    17.3864    80.7328 </r>
       <r>   -20.1433    19.0308    83.6449 </r>
       <r>   -20.0244     0.0000    84.0000 </r>
       <r>   -19.9056     0.0000    84.0000 </r>
       <r>   -19.7867     0.0000    84.0000 </r>
       <r>   -19.6679     0.0000    84.0000 </r>
       <r>   -19.5491     0.0000    84.0000 </r>
       <r>   -19.4302     0.0000    84.0000 </r>
       <r>   -19.3114     0.0000    84.0000 </r>
       <r>   -19.1926    16.7178    85.9867 </r>
       <r>   -19.0737    13.6567    89.9896 </r>
       <r>   -18.9549    17.8415    92.3202 </r>
       <r>   -18.8360    10.6343    93.6971 </r>
       <r>   -18.7172     7.6640    95.6441 </r>
       <r>   -18.5984    11.3560    98.2162 </r>
       <r>   -18.4795    16.8296   102.0000 </r>
       <r>   -18.3607     0.0000   102.0000 </r>
       <r>   -18.2419     0.0000   102.0000 </r>
       <r>   -18.1230     0.0000   102.0000 </r>
       <r>   -18.0042    16.8298   104.0000 </r>
       <r>   -17.8853    20.7688   107.6348 </r>
       <r>   -17.7665    14.5291   109.5099 </r>
       <r>   -17.6477     2.2665   110.3360 </r>
       <r>   -17.5288    23.6754   113.5635 </r>
       <r>   -17.4100    16.2599   116.1156 </r>
       <r>   -17.2911     9.7986   117.9478 </r>
       <r>   -17.1723    14.7259   120.0000 </r>
       <r>   -17.0535     0.0000   120.0000 </r>
       <r>   -16.9346     0.0000   120.0000 </r>
       <r>   -16.8158     0.0000   120.0000 </r>
       <r>   -16.6970    17.3522   122.0621 </r>
       <r>   -16.5781    29.3137   125.9003 </r>
       <r>   -16.4593    20.7846   129.3200 </r>
       <r>   -16.3404    19.1418   131.9748 </r>
       <r>   -16.2216     0.0000   132.0000 </r>
       <r>   -16.1028     0.0000   132.0000 </r>
       <r>   -15.9839     0.0000   132.0000 </r>
       <r>   -15.8651     0.0000   132.0000 </r>
       <r>   -15.7462     0.2196   132.0261 </r>
       <r>   -15.6274    25.3416   135.4782 </r>
       <r>   -15.5086    17.5617   138.0870 </r>
       <r>   -15.3897    26.0978   142.9347 </r>
       <r>   -15.2709     9.5267   145.1321 </r>
       <r>   -15.1521    33.5909   149.9919 </r>
       <r>   -15.0332    19.6722   153.1878 </r>
       <r>   -14.9144     0.0000   154.0000 </r>
       <r>   -14.7955    16.8296   156.0000 </r>
       <r>   -14.6767    16.2019   157.9254 </r>
       <r>   -14.5579     2.6934   160.3201 </r>
       <r>   -14.4390     0.0000   162.0000 </r>
       <r>   -14.3202     2.7121   162.3223 </r>
       <r>   -14.2014    16.9343   166.0124 </r>
       <r>   -14.0825     0.0000   168.0000 </r>
       <r>   -13.9637     0.0000   168.0000 </r>
       <r>   -13.8448     0.0000   168.0000 </r>
       <r>   -13.7260     0.0000   168.0000 </r>
       <r>   -13.6072    49.2108   173.8481 </r>
       <r>   -13.4883    17.2033   180.0444 </r>
       <r>   -13.3695    28.3362   185.9341 </r>
       <r>   -13.2506    16.6882   187.9832 </r>
       <r>   -13.1318    33.4627   191.9766 </r>
       <r>   -13.0130    33.9996   196.0405 </r>
       <r>   -12.8941    32.0480   201.9419 </r>
       <r>   -12.7753    18.5125   206.0000 </r>
       <r>   -12.6565    46.6921   211.5488 </r>
       <r>   -12.5376    36.2418   217.9402 </r>
       <r>   -12.4188    45.5802   226.0000 </r>
       <r>   -12.2999    24.3129   228.8893 </r>
       <r>   -12.1811    16.2531   233.9315 </r>
       <r>   -12.0623    18.3217   236.1773 </r>
       <r>   -11.9434    52.6969   245.0624 </r>
       <r>   -11.8246    32.2567   250.0000 </r>
       <r>   -11.7058    16.8296   252.0000 </r>
       <r>   -11.5869    14.8238   253.7616 </r>
       <r>   -11.4681    16.1137   256.0816 </r>
       <r>   -11.3492    21.4713   260.0016 </r>
       <r>   -11.2304    22.1185   263.9952 </r>
       <r>   -11.1116    12.3419   265.4667 </r>
       <r>   -10.9927    33.2129   269.9470 </r>
       <r>   -10.8739    16.8230   271.9992 </r>
       <r>   -10.7550    28.7499   275.9999 </r>
       <r>   -10.6362    44.1913   281.5850 </r>
       <r>   -10.5174     7.9119   284.2736 </r>
       <r>   -10.3985    21.8919   287.7016 </r>
       <r>   -10.2797    17.5989   291.4914 </r>
       <r>   -10.1609    20.1035   294.3891 </r>
       <r>   -10.0420    13.7719   297.7700 </r>
       <r>    -9.9232    19.7008   300.3412 </r>
       <r>    -9.8043    21.1029   304.3745 </r>
       <r>    -9.6855     1.7164   306.0040 </r>
       <r>    -9.5667    29.7267   311.5327 </r>
       <r>    -9.4478    26.8737   315.7270 </r>
       <r>    -9.3290    18.5134   319.9501 </r>
       <r>    -9.2101    24.6450   323.7954 </r>
       <r>    -9.0913     0.0000   324.0000 </r>
       <r>    -8.9725     0.0000   324.0000 </r>
       <r>    -8.8536     0.0957   324.0114 </r>
       <r>    -8.7348    35.3706   330.0034 </r>
       <r>    -8.6160    27.3175   335.2464 </r>
       <r>    -8.4971    20.7869   338.3536 </r>
       <r>    -8.3783    32.5742   343.9377 </r>
       <r>    -8.2594    16.7808   347.9942 </r>
       <r>    -8.1406    30.7854   351.6585 </r>
       <r>    -8.0218    25.5845   356.2738 </r>
       <r>    -7.9029    21.7611   359.9694 </r>
       <r>    -7.7841     0.0000   360.0000 </r>
       <r>    -7.6653    29.7457   363.5349 </r>
       <r>    -7.5464    34.2141   370.0659 </r>
       <r>    -7.4276    16.8296   374.0000 </r>
       <r>    -7.3087    69.0716   382.2083 </r>
       <r>    -7.1899    13.4834   386.0023 </r>
       <r>    -7.0711    70.8451   397.9524 </r>
       <r>    -6.9522    48.1417   405.7211 </r>
       <r>    -6.8334    33.7161   412.0068 </r>
       <r>    -6.7145     0.0000   414.0000 </r>
       <r>    -6.5957     0.0000   414.0000 </r>
       <r>    -6.4769    35.2744   418.1919 </r>
       <r>    -6.3580    16.8297   422.0000 </r>
       <r>    -6.2392    36.8076   428.3741 </r>
       <r>    -6.1204     0.0000   434.0000 </r>
       <r>    -6.0015    33.6180   439.9951 </r>
       <r>    -5.8827    16.8295   444.0000 </r>
       <r>    -5.7638     3.7404   446.0112 </r>
       <r>    -5.6450    16.6290   449.9762 </r>
       <r>    -5.5262     1.1890   450.1413 </r>
       <r>    -5.4073    22.4704   453.7203 </r>
       <r>    -5.2885     6.8721   456.0000 </r>
       <r>    -5.1696     0.0000   456.0000 </r>
       <r>    -5.0508     0.0000   456.0000 </r>
       <r>    -4.9320     0.0000   456.0000 </r>
       <r>    -4.8131     0.0000   456.0000 </r>
       <r>    -4.6943     0.0000   456.0000 </r>
       <r>    -4.5755    12.8354   457.5253 </r>
       <r>    -4.4566     0.0111   458.0013 </r>
       <r>    -4.3378    16.8295   462.0000 </r>
       <r>    -4.2189     0.0000   462.0000 </r>
       <r>    -4.1001     0.0000   462.0000 </r>
       <r>    -3.9813     0.0000   462.0000 </r>
       <r>    -3.8624     0.0000   462.0000 </r>
       <r>    -3.7436     0.0000   462.0000 </r>
       <r>    -3.6248     0.0000   462.0000 </r>
       <r>    -3.5059     0.0000   462.0000 </r>
       <r>    -3.3871     0.0000   462.0000 </r>
       <r>    -3.2682     0.5492   462.0653 </r>
       <r>    -3.1494     7.7220   466.9177 </r>
       <r>    -3.0306     4.9410   472.5872 </r>
       <r>    -2.9117     0.0000   474.0000 </r>
       <r>    -2.7929     0.0000   474.0000 </r>
       <r>    -2.6740    16.8365   476.0008 </r>
       <r>    -2.5552    33.5948   481.9923 </r>
       <r>    -2.4364    33.6544   485.9994 </r>
       <r>    -2.3175     0.0000   486.0000 </r>
       <r>    -2.1987     0.0000   486.0000 </r>
       <r>    -2.0799     0.0000   486.0000 </r>
       <r>    -1.9610    21.5270   488.5582 </r>
       <r>    -1.8422    33.6453   493.9983 </r>
       <r>    -1.7233    19.8290   496.3564 </r>
       <r>    -1.6045     0.0000   498.0000 </r>
       <r>    -1.4857     0.0304   498.0036 </r>
       <r>    -1.3668    33.6592   504.0000 </r>
       <r>    -1.2480     0.0000   504.0000 </r>
       <r>    -1.1292    13.6082   506.0005 </r>
       <r>    -1.0103     8.4151   508.0000 </r>
       <r>    -0.8915     1.8248   510.0002 </r>
       <r>    -0.7726    11.5002   512.0000 </r>
       <r>    -0.6538    16.7670   513.9926 </r>
       <r>    -0.5350     0.0590   514.0070 </r>
       <r>    -0.4161     0.0000   516.0000 </r>
       <r>    -0.2973     0.0758   516.0090 </r>
       <r>    -0.1784    15.5928   519.2530 </r>
       <r>    -0.0596    14.6082   522.0027 </r>
       <r>     0.0592    17.3082   525.7235 </r>
       <r>     0.1781    17.9802   528.1367 </r>
       <r>     0.2969    16.0462   531.2402 </r>
       <r>     0.4157    10.3559   533.3973 </r>
       <r>     0.5346    31.7895   538.7611 </r>
       <r>     0.6534    31.6258   544.0917 </r>
       <r>     0.7723    33.3211   549.6598 </r>
       <r>     0.8911    34.4905   555.8655 </r>
       <r>     1.0099    32.8789   561.8406 </r>
       <r>     1.1288    42.2725   568.9736 </r>
       <r>     1.2476    45.8009   576.9096 </r>
       <r>     1.3665    40.0234   583.4063 </r>
       <r>     1.4853    40.6233   590.7109 </r>
       <r>     1.6041    54.5225   599.4627 </r>
       <r>     1.7230    37.9956   606.9153 </r>
       <r>     1.8418     0.4207   608.0000 </r>
       <r>     1.9606     0.0000   608.0000 </r>
       <r>     2.0795     0.0000   608.0000 </r>
       <r>     2.1983     0.0000   608.0000 </r>
       <r>     2.3172     0.0000   608.0000 </r>
       <r>     2.4360     0.0000   608.0000 </r>
       <r>     2.5548     0.0000   608.0000 </r>
       <r>     2.6737     0.0000   608.0000 </r>
       <r>     2.7925     0.0000   608.0000 </r>
       <r>     2.9113     0.0000   608.0000 </r>
       <r>     3.0302     0.0000   608.0000 </r>
       <r>     3.1490     0.0000   608.0000 </r>
       <r>     3.2679     0.0000   608.0000 </r>
       <r>     3.3867     0.0000   608.0000 </r>
      </set>
     </set>
    </array>
   </total>
  </dos>
 </calculation>
 <structure name="finalpos" >
  <crystal>
   <varray name="basis" >
    <v>      22.67462876       0.06200848       0.00000000 </v>
    <v>     -11.28424343      19.37244757       0.00000000 </v>
    <v>       0.00000000       0.00000000      20.00000000 </v>
   </varray>
   <i name="volume">   8799.25551609 </i>
   <varray name="rec_basis" >
    <v>       0.04403202       0.02564818       0.00000000 </v>
    <v>      -0.00014094       0.05153761       0.00000000 </v>
    <v>       0.00000000       0.00000000       0.05000000 </v>
   </varray>
  </crystal>
  <varray name="positions" >
   <v>       0.68602682       0.17282754       0.69576477 </v>
   <v>       0.79395518       0.20473923       0.67705071 </v>
   <v>       0.81612865       0.54246307       0.60990687 </v>
   <v>       0.88422612       0.61692092       0.53411798 </v>
   <v>       0.55648946       0.34693099       0.71837002 </v>
   <v>       0.48045941       0.37577356       0.68744856 </v>
   <v>       0.57823278       0.70346680       0.56176293 </v>
   <v>       0.29419891       0.76596412       0.70715062 </v>
   <v>       0.30816538       0.86783051       0.67976728 </v>
   <v>       0.49609535       0.69416880       0.62815151 </v>
   <v>       0.14280410       0.46341155       0.66991409 </v>
   <v>       0.17434355       0.38497848       0.66118796 </v>
   <v>       0.70094315       0.30531606       0.44032423 </v>
   <v>       0.91830425       0.37121560       0.52561892 </v>
   <v>       0.92721915       0.55881094       0.46127789 </v>
   <v>       0.70878941       0.37730103       0.40369835 </v>
   <v>       0.74910109       0.23250294       0.40669994 </v>
   <v>       0.65601720       0.47824098       0.35685674 </v>
   <v>       0.57862800       0.24467820       0.66227632 </v>
   <v>       0.53142824       0.94521459       0.49732592 </v>
   <v>       0.65280850       0.39485584       0.51548953 </v>
   <v>       0.58489793       0.55396177       0.44964277 </v>
   <v>       0.58702004       0.04284528       0.52258588 </v>
   <v>       0.64764278       0.23311371       0.65960732 </v>
   <v>       0.53961011       0.61240085       0.47405450 </v>
   <v>       0.58461187       0.32927429       0.55251051 </v>
   <v>       0.39736045       0.14616777       0.50605722 </v>
   <v>       0.46279049       0.80622445       0.36937224 </v>
   <v>       0.21278862       0.63935590       0.63156931 </v>
   <v>       0.35375161       0.71404487       0.49916173 </v>
   <v>       0.40491632       0.05256813       0.55403413 </v>
   <v>       0.28799466       0.58000635       0.43759749 </v>
   <v>       0.35249030       0.41972125       0.50072495 </v>
   <v>       0.21649336       0.56696481       0.61859367 </v>
   <v>       0.35031941       0.94779968       0.55994364 </v>
   <v>       0.28306410       0.71576507       0.51981746 </v>
   <v>       0.40945147       0.38451223       0.54395744 </v>
   <v>       0.35950447       0.64717596       0.40716818 </v>
   <v>       0.22312963       0.45452059       0.38850049 </v>
   <v>       0.01434979       0.60650485       0.52776129 </v>
   <v>       0.02470787       0.42350592       0.48794924 </v>
   <v>       0.11722536       0.71374332       0.47020188 </v>
   <v>       0.72470436       0.35746846       0.44050693 </v>
   <v>       0.78421188       0.27239089       0.56767183 </v>
   <v>       0.73816822       0.19661770       0.66021545 </v>
   <v>       0.71794500       0.52698423       0.51201350 </v>
   <v>       0.82986665       0.56651737       0.55300630 </v>
   <v>       0.68446651       0.17827781       0.48524126 </v>
   <v>       0.74504544       0.48463046       0.39317805 </v>
   <v>       0.60596787       0.22807421       0.63541220 </v>
   <v>       0.60138935       0.36911387       0.51996374 </v>
   <v>       0.49158767       0.23557373       0.63776526 </v>
   <v>       0.50986822       0.34200985       0.68237731 </v>
   <v>       0.49118795       0.78242111       0.52926419 </v>
   <v>       0.43165954       0.24920944       0.52470225 </v>
   <v>       0.46822657       0.72192208       0.40523006 </v>
   <v>       0.20281943       0.60011674       0.59937313 </v>
   <v>       0.32983157       0.74211898       0.49852251 </v>
   <v>       0.33906427       0.61064290       0.44354926 </v>
   <v>       0.18951146       0.71310537       0.61626430 </v>
   <v>       0.28503797       0.80524816       0.67094754 </v>
   <v>       0.52666759       0.70729993       0.57447768 </v>
   <v>       0.24917068       0.45987698       0.55300263 </v>
   <v>       0.16784422       0.43285058       0.63968375 </v>
   <v>       0.21488433       0.78648596       0.50018026 </v>
   <v>       0.16295814       0.46544298       0.46027121 </v>
   <v>       0.89577255       0.39820469       0.50051904 </v>
   <v>       0.82746690       0.35975411       0.48187058 </v>
   <v>       0.79392374       0.39313509       0.45403659 </v>
   <v>       0.67276784       0.17356081       0.55182105 </v>
   <v>       0.78543322       0.28697850       0.50273591 </v>
   <v>       0.73117658       0.21561501       0.59087503 </v>
   <v>       0.78873204       0.49989979       0.44431464 </v>
   <v>       0.66965478       0.50045312       0.46427041 </v>
   <v>       0.77717394       0.53159424       0.50032485 </v>
   <v>       0.93452795       0.46971768       0.49060432 </v>
   <v>       0.83093767       0.46661672       0.45041548 </v>
   <v>       0.90023560       0.50293499       0.46641730 </v>
   <v>       0.74028929       0.23182305       0.46051804 </v>
   <v>       0.68875015       0.48909905       0.40054509 </v>
   <v>       0.43902043       0.84934137       0.49584512 </v>
   <v>       0.47664458       0.92017299       0.50564631 </v>
   <v>       0.45938657       0.07306210       0.56129289 </v>
   <v>       0.49741601       0.13952251       0.58791022 </v>
   <v>       0.56845903       0.16726104       0.60189169 </v>
   <v>       0.55968545       0.50388204       0.47439431 </v>
   <v>       0.59736111       0.47122818       0.48488295 </v>
   <v>       0.56666054       0.40499356       0.51518748 </v>
   <v>       0.46704867       0.30450309       0.56461065 </v>
   <v>       0.46931016       0.18595295       0.59104535 </v>
   <v>       0.48676553       0.29112803       0.62686712 </v>
   <v>       0.47779676       0.69048318       0.45779654 </v>
   <v>       0.47057823       0.80701976       0.47851484 </v>
   <v>       0.49920769       0.72909751       0.51787485 </v>
   <v>       0.44674560       0.95859248       0.52784152 </v>
   <v>       0.48845495       0.03251847       0.54455212 </v>
   <v>       0.60014854       0.13289886       0.57086358 </v>
   <v>       0.56011741       0.06704291       0.54426728 </v>
   <v>       0.45189706       0.50966906       0.48340284 </v>
   <v>       0.48434887       0.58101774       0.47097993 </v>
   <v>       0.44771726       0.61444031       0.45766155 </v>
   <v>       0.49117285       0.47422151       0.49453934 </v>
   <v>       0.49745996       0.37465819       0.53542238 </v>
   <v>       0.46162446       0.40920656       0.52548252 </v>
   <v>       0.42846340       0.18985763       0.53877290 </v>
   <v>       0.46876518       0.78141205       0.41378985 </v>
   <v>       0.36766110       0.81263913       0.50785616 </v>
   <v>       0.37527223       0.57633972       0.45518970 </v>
   <v>       0.34232084       0.50597203       0.47406669 </v>
   <v>       0.38040456       0.47411812       0.48725538 </v>
   <v>       0.26344113       0.80906108       0.54771436 </v>
   <v>       0.24300946       0.77550303       0.60997858 </v>
   <v>       0.26850887       0.47250025       0.48895079 </v>
   <v>       0.19123756       0.45639921       0.57021537 </v>
   <v>       0.37600229       0.92184000       0.53941344 </v>
   <v>       0.33677387       0.85102048       0.52953128 </v>
   <v>       0.21769145       0.46241388       0.44156706 </v>
   <v>       0.15596878       0.72849479       0.50902063 </v>
   <v>       0.13975663       0.57021893       0.56931401 </v>
   <v>       0.10610824       0.60888463       0.55801856 </v>
   <v>       0.04028217       0.57666037       0.53113768 </v>
   <v>       0.14741470       0.68448480       0.56399042 </v>
   <v>       0.15291329       0.47260416       0.52563162 </v>
   <v>       0.00671932       0.50737356       0.51099881 </v>
   <v>       0.04516426       0.47401964       0.51126106 </v>
   <v>       0.10989796       0.50347220       0.53962015 </v>
  </varray>
 </structure>
</modeling>
