<?xml version="1.0" encoding="ISO-8859-1"?>
<modeling>
 <generator>
  <i name="program" type="string">vasp </i>
  <i name="version" type="string">5.4.4.18Apr17-6-g9f103f2a35  </i>
  <i name="subversion" type="string">(build Jun 07 2020 16:50:00) complex            parallel </i>
  <i name="platform" type="string">LinuxIFC </i>
  <i name="date" type="string">2023 02 25 </i>
  <i name="time" type="string">15:30:39 </i>
 </generator>
 <incar>
  <i type="string" name="SYSTEM">Simulation for cell shape cell volume r</i>
  <i type="int" name="ISTART">     1</i>
  <i type="string" name="PREC">high</i>
  <i type="string" name="ALGO">48</i>
  <i type="int" name="ICHARG">    11</i>
  <i type="int" name="NELM">   200</i>
  <i type="int" name="IBRION">    -1</i>
  <i name="EDIFF">      0.00001000</i>
  <i name="EDIFFG">     -0.01000000</i>
  <i type="int" name="NSW">     0</i>
  <i type="int" name="ISIF">     2</i>
  <i name="ENCUT">    500.00000000</i>
  <i name="POTIM">      0.30000000</i>
  <i type="string" name="LREAL">A</i>
  <i type="int" name="ISMEAR">     0</i>
  <i name="SIGMA">      0.01000000</i>
  <i type="int" name="NWRITE">     0</i>
  <i type="logical" name="LWAVE"> F  </i>
  <i type="logical" name="LCHARG"> F  </i>
  <v type="int" name="KPOINT_BSE">    -1     0     0     0</v>
  <i type="int" name="NELM">   200</i>
  <i type="string" name="GGA">PE</i>
 </incar>
 <structure name="primitive_cell" >
  <crystal>
   <varray name="basis" >
    <v>      29.79312382      -0.00224863       0.00000000 </v>
    <v>     -14.89850917      25.79181516       0.00000000 </v>
    <v>       0.00000000       0.00000000      20.00000000 </v>
   </varray>
   <i name="volume">  15367.70482771 </i>
   <varray name="rec_basis" >
    <v>       0.03356626       0.01938937       0.00000000 </v>
    <v>       0.00000293       0.03877368       0.00000000 </v>
    <v>       0.00000000       0.00000000       0.05000000 </v>
   </varray>
  </crystal>
  <varray name="positions" >
   <v>      -0.48848025       0.01241229      -0.31028792 </v>
   <v>      -0.47315927       0.04413645      -0.35579541 </v>
   <v>      -0.44490812       0.10146742      -0.34037593 </v>
   <v>      -0.48344316       0.02409392      -0.42821958 </v>
   <v>      -0.44274711       0.10595531      -0.28592846 </v>
   <v>       0.49056861      -0.02803081      -0.43183675 </v>
   <v>      -0.40567670       0.12111873      -0.36177997 </v>
   <v>      -0.46483200       0.12069004      -0.36200008 </v>
   <v>      -0.46877052       0.05422786      -0.48749938 </v>
   <v>       0.47887396      -0.05072440      -0.49173128 </v>
   <v>      -0.43984193       0.11195571      -0.49043273 </v>
   <v>      -0.48080190       0.03118107       0.45186225 </v>
   <v>       0.45012466      -0.10840360      -0.49447978 </v>
   <v>       0.49342989      -0.02044069       0.44975409 </v>
   <v>      -0.36424247       0.11876908      -0.49219662 </v>
   <v>      -0.38564061       0.13966741      -0.49291031 </v>
   <v>       0.49140980       0.11882656      -0.49285595 </v>
   <v>      -0.46628681       0.13969412      -0.49329413 </v>
   <v>      -0.48110843      -0.11534943      -0.49414286 </v>
   <v>       0.37442408      -0.11535118      -0.49464111 </v>
   <v>       0.47660292      -0.13616146      -0.49533935 </v>
   <v>       0.39588814      -0.13617397      -0.49563348 </v>
   <v>       0.48391405      -0.03855819       0.40031257 </v>
   <v>      -0.35873355       0.19360984      -0.49589219 </v>
   <v>      -0.43918976       0.19363025      -0.49623052 </v>
   <v>       0.44947824      -0.19015139      -0.49681240 </v>
   <v>       0.36900602      -0.19016112      -0.49704612 </v>
   <v>      -0.38460497       0.22231206      -0.49679578 </v>
   <v>      -0.31656795       0.21324824      -0.49742305 </v>
   <v>      -0.46167851       0.21329378      -0.49801112 </v>
   <v>       0.39490099      -0.21883230      -0.49746978 </v>
   <v>       0.47194665      -0.20986225      -0.49700594 </v>
   <v>       0.32682387      -0.20986066      -0.49738939 </v>
   <v>      -0.35571375       0.28009166      -0.49791821 </v>
   <v>      -0.28028388       0.28719745      -0.49770282 </v>
   <v>      -0.42406549       0.28714488      -0.49757036 </v>
   <v>       0.36598536      -0.27662879      -0.49802681 </v>
   <v>      -0.30132598       0.30824790      -0.49797224 </v>
   <v>      -0.38197054       0.30821548      -0.49792149 </v>
   <v>       0.43429559      -0.28375490      -0.49776459 </v>
   <v>       0.29057317      -0.28369407      -0.49786032 </v>
   <v>       0.39219998      -0.30479160      -0.49801524 </v>
   <v>       0.31159862      -0.30475602      -0.49806419 </v>
   <v>      -0.20644306       0.32341900      -0.49711606 </v>
   <v>      -0.46171578       0.32330014      -0.49721484 </v>
   <v>      -0.27318796       0.36265326      -0.49783188 </v>
   <v>      -0.35572299       0.36261608      -0.49784608 </v>
   <v>       0.47188230      -0.31996327      -0.49691742 </v>
   <v>       0.21675993      -0.31986089      -0.49691052 </v>
   <v>       0.36591541      -0.35919519      -0.49794582 </v>
   <v>       0.28342735      -0.35915548      -0.49802274 </v>
   <v>      -0.30132601       0.38890499      -0.49778867 </v>
   <v>      -0.18677330       0.36559539      -0.49564402 </v>
   <v>      -0.43923666       0.36547864      -0.49575702 </v>
   <v>      -0.21541623       0.39152800      -0.49665924 </v>
   <v>      -0.38465416       0.39144874      -0.49672535 </v>
   <v>       0.31152706      -0.38543944      -0.49800558 </v>
   <v>       0.44938135      -0.36215636      -0.49668599 </v>
   <v>       0.19703033      -0.36205466      -0.49680540 </v>
   <v>       0.39480260      -0.38808413      -0.49730536 </v>
   <v>       0.22564269      -0.38801187      -0.49747071 </v>
   <v>      -0.28028623       0.43101282      -0.49723152 </v>
   <v>      -0.11203214       0.37096512      -0.49178428 </v>
   <v>      -0.13285197       0.39243852      -0.49258389 </v>
   <v>       0.49134646       0.37077486      -0.49202058 </v>
   <v>      -0.46635004       0.39228553      -0.49277796 </v>
   <v>      -0.11410760       0.41288409      -0.36123473 </v>
   <v>      -0.46456050       0.41273860      -0.36138536 </v>
   <v>       0.29044867      -0.42754526      -0.49777490 </v>
   <v>      -0.48122501      -0.36753232      -0.49409739 </v>
   <v>       0.12227440      -0.36739226      -0.49420595 </v>
   <v>       0.47648512      -0.38901813      -0.49522936 </v>
   <v>      -0.18667643       0.44612506      -0.49613160 </v>
   <v>      -0.35881773       0.44604227      -0.49622574 </v>
   <v>       0.14305735      -0.38889338      -0.49542760 </v>
   <v>      -0.09873232       0.45014147      -0.28555670 </v>
   <v>      -0.44254513       0.44996199      -0.28567790 </v>
   <v>      -0.20629203       0.46866371      -0.49800955 </v>
   <v>      -0.31666217       0.46860493      -0.49809988 </v>
   <v>      -0.09424308       0.45218649      -0.34000391 </v>
   <v>      -0.44500242       0.45203340      -0.34011885 </v>
   <v>       0.36889064      -0.44267257      -0.49676809 </v>
   <v>       0.19692737      -0.44259690      -0.49707052 </v>
   <v>      -0.11328571       0.47223164      -0.36179040 </v>
   <v>      -0.40591168       0.47199681      -0.36192357 </v>
   <v>      -0.10506853       0.44665375      -0.49013134 </v>
   <v>      -0.43993039       0.44650568      -0.49030803 </v>
   <v>       0.32670832      -0.46518145      -0.49706275 </v>
   <v>       0.21658117      -0.46511625      -0.49741308 </v>
   <v>      -0.13274608       0.47316439      -0.49309255 </v>
   <v>      -0.38573285       0.47305104      -0.49323263 </v>
   <v>       0.44999660      -0.44326816      -0.49428828 </v>
   <v>       0.11525615      -0.44314479      -0.49459772 </v>
   <v>       0.39575584      -0.46977152      -0.49530534 </v>
   <v>       0.14295753      -0.46967407      -0.49567564 </v>
   <v>      -0.03694217       0.48007537      -0.35554525 </v>
   <v>      -0.47421479       0.48012878      -0.35557542 </v>
   <v>      -0.04733061       0.47547498      -0.48725421 </v>
   <v>      -0.46885829       0.47530307      -0.48734309 </v>
   <v>      -0.11184693      -0.48451989      -0.49270120 </v>
   <v>      -0.36433172      -0.48463063      -0.49284134 </v>
   <v>      -0.01708436       0.49045000      -0.42805578 </v>
   <v>      -0.48383837       0.49045748      -0.42805208 </v>
   <v>      -0.00510487       0.49496412      -0.31018796 </v>
   <v>      -0.49091828       0.49520898      -0.31015798 </v>
   <v>       0.47877253      -0.47214473      -0.49157657 </v>
   <v>       0.05760438      -0.47199552      -0.49177983 </v>
   <v>       0.37427974       0.48792875      -0.49417986 </v>
   <v>       0.12209812       0.48802201      -0.49464891 </v>
   <v>       0.49025478      -0.48334837      -0.43168564 </v>
   <v>       0.03502723      -0.48339511      -0.43182852 </v>
   <v>      -0.02437254       0.48701403       0.45203382 </v>
   <v>      -0.48061925       0.48659428       0.45200855 </v>
   <v>       0.48418651      -0.47888121       0.40045710 </v>
   <v>       0.04526816      -0.47816375       0.40028416 </v>
   <v>       0.49356291      -0.48762494       0.44990193 </v>
   <v>       0.02723045      -0.48718944       0.44978114 </v>
  </varray>
 </structure>
 <varray name="primitive_index" >
  <v type="int" >        1 </v>
  <v type="int" >       57 </v>
  <v type="int" >       58 </v>
  <v type="int" >       56 </v>
  <v type="int" >      108 </v>
  <v type="int" >       71 </v>
  <v type="int" >      109 </v>
  <v type="int" >      107 </v>
  <v type="int" >       54 </v>
  <v type="int" >       55 </v>
  <v type="int" >       39 </v>
  <v type="int" >       73 </v>
  <v type="int" >       15 </v>
  <v type="int" >       68 </v>
  <v type="int" >      102 </v>
  <v type="int" >       38 </v>
  <v type="int" >      101 </v>
  <v type="int" >       40 </v>
  <v type="int" >       86 </v>
  <v type="int" >       87 </v>
  <v type="int" >       16 </v>
  <v type="int" >       14 </v>
  <v type="int" >      116 </v>
  <v type="int" >       37 </v>
  <v type="int" >       41 </v>
  <v type="int" >       17 </v>
  <v type="int" >       13 </v>
  <v type="int" >       36 </v>
  <v type="int" >      103 </v>
  <v type="int" >      100 </v>
  <v type="int" >       12 </v>
  <v type="int" >       85 </v>
  <v type="int" >       88 </v>
  <v type="int" >       32 </v>
  <v type="int" >      104 </v>
  <v type="int" >      106 </v>
  <v type="int" >        8 </v>
  <v type="int" >       31 </v>
  <v type="int" >       33 </v>
  <v type="int" >       91 </v>
  <v type="int" >       89 </v>
  <v type="int" >        9 </v>
  <v type="int" >        7 </v>
  <v type="int" >       93 </v>
  <v type="int" >       98 </v>
  <v type="int" >       30 </v>
  <v type="int" >       34 </v>
  <v type="int" >       83 </v>
  <v type="int" >       78 </v>
  <v type="int" >       10 </v>
  <v type="int" >        6 </v>
  <v type="int" >       35 </v>
  <v type="int" >       43 </v>
  <v type="int" >       53 </v>
  <v type="int" >       42 </v>
  <v type="int" >       48 </v>
  <v type="int" >       11 </v>
  <v type="int" >       29 </v>
  <v type="int" >       19 </v>
  <v type="int" >       24 </v>
  <v type="int" >       18 </v>
  <v type="int" >      105 </v>
  <v type="int" >       92 </v>
  <v type="int" >       44 </v>
  <v type="int" >       99 </v>
  <v type="int" >       52 </v>
  <v type="int" >      113 </v>
  <v type="int" >      112 </v>
  <v type="int" >       90 </v>
  <v type="int" >       84 </v>
  <v type="int" >       77 </v>
  <v type="int" >       28 </v>
  <v type="int" >       47 </v>
  <v type="int" >       49 </v>
  <v type="int" >       20 </v>
  <v type="int" >      114 </v>
  <v type="int" >      111 </v>
  <v type="int" >       95 </v>
  <v type="int" >       96 </v>
  <v type="int" >       67 </v>
  <v type="int" >       63 </v>
  <v type="int" >       25 </v>
  <v type="int" >       23 </v>
  <v type="int" >      115 </v>
  <v type="int" >      110 </v>
  <v type="int" >       45 </v>
  <v type="int" >       51 </v>
  <v type="int" >       81 </v>
  <v type="int" >       80 </v>
  <v type="int" >       46 </v>
  <v type="int" >       50 </v>
  <v type="int" >       27 </v>
  <v type="int" >       21 </v>
  <v type="int" >       26 </v>
  <v type="int" >       22 </v>
  <v type="int" >       66 </v>
  <v type="int" >       62 </v>
  <v type="int" >       64 </v>
  <v type="int" >       59 </v>
  <v type="int" >       94 </v>
  <v type="int" >       97 </v>
  <v type="int" >       65 </v>
  <v type="int" >       61 </v>
  <v type="int" >        3 </v>
  <v type="int" >        2 </v>
  <v type="int" >       60 </v>
  <v type="int" >        4 </v>
  <v type="int" >       82 </v>
  <v type="int" >       79 </v>
  <v type="int" >       72 </v>
  <v type="int" >       70 </v>
  <v type="int" >       75 </v>
  <v type="int" >       74 </v>
  <v type="int" >      117 </v>
  <v type="int" >       76 </v>
  <v type="int" >       69 </v>
  <v type="int" >        5 </v>
 </varray>
 <kpoints>
  <generation param="listgenerated">
   <i name="divisions" type="int">      20 </i>
   <v>       0.00000000       0.00000000       0.00000000 </v>
   <v>       0.50000000       0.00000000       0.00000000 </v>
   <v>       0.33333333       0.33333333       0.00000000 </v>
   <v>       0.00000000       0.00000000       0.00000000 </v>
  </generation>
  <varray name="kpointlist" >
   <v>       0.00000000       0.00000000       0.00000000 </v>
   <v>       0.02631579       0.00000000       0.00000000 </v>
   <v>       0.05263158       0.00000000       0.00000000 </v>
   <v>       0.07894737       0.00000000       0.00000000 </v>
   <v>       0.10526316       0.00000000       0.00000000 </v>
   <v>       0.13157895       0.00000000       0.00000000 </v>
   <v>       0.15789474       0.00000000       0.00000000 </v>
   <v>       0.18421053       0.00000000       0.00000000 </v>
   <v>       0.21052632       0.00000000       0.00000000 </v>
   <v>       0.23684211       0.00000000       0.00000000 </v>
   <v>       0.26315789       0.00000000       0.00000000 </v>
   <v>       0.28947368       0.00000000       0.00000000 </v>
   <v>       0.31578947       0.00000000       0.00000000 </v>
   <v>       0.34210526       0.00000000       0.00000000 </v>
   <v>       0.36842105       0.00000000       0.00000000 </v>
   <v>       0.39473684       0.00000000       0.00000000 </v>
   <v>       0.42105263       0.00000000       0.00000000 </v>
   <v>       0.44736842       0.00000000       0.00000000 </v>
   <v>       0.47368421       0.00000000       0.00000000 </v>
   <v>       0.50000000       0.00000000       0.00000000 </v>
   <v>       0.50000000       0.00000000       0.00000000 </v>
   <v>       0.49122807       0.01754386       0.00000000 </v>
   <v>       0.48245614       0.03508772       0.00000000 </v>
   <v>       0.47368421       0.05263158       0.00000000 </v>
   <v>       0.46491228       0.07017544       0.00000000 </v>
   <v>       0.45614035       0.08771930       0.00000000 </v>
   <v>       0.44736842       0.10526316       0.00000000 </v>
   <v>       0.43859649       0.12280702       0.00000000 </v>
   <v>       0.42982456       0.14035088       0.00000000 </v>
   <v>       0.42105263       0.15789474       0.00000000 </v>
   <v>       0.41228070       0.17543860       0.00000000 </v>
   <v>       0.40350877       0.19298246       0.00000000 </v>
   <v>       0.39473684       0.21052632       0.00000000 </v>
   <v>       0.38596491       0.22807018       0.00000000 </v>
   <v>       0.37719298       0.24561404       0.00000000 </v>
   <v>       0.36842105       0.26315789       0.00000000 </v>
   <v>       0.35964912       0.28070175       0.00000000 </v>
   <v>       0.35087719       0.29824561       0.00000000 </v>
   <v>       0.34210526       0.31578947       0.00000000 </v>
   <v>       0.33333333       0.33333333       0.00000000 </v>
   <v>       0.33333333       0.33333333       0.00000000 </v>
   <v>       0.31578947       0.31578947       0.00000000 </v>
   <v>       0.29824561       0.29824561       0.00000000 </v>
   <v>       0.28070175       0.28070175       0.00000000 </v>
   <v>       0.26315789       0.26315789       0.00000000 </v>
   <v>       0.24561404       0.24561404       0.00000000 </v>
   <v>       0.22807018       0.22807018       0.00000000 </v>
   <v>       0.21052632       0.21052632       0.00000000 </v>
   <v>       0.19298246       0.19298246       0.00000000 </v>
   <v>       0.17543860       0.17543860       0.00000000 </v>
   <v>       0.15789474       0.15789474       0.00000000 </v>
   <v>       0.14035088       0.14035088       0.00000000 </v>
   <v>       0.12280702       0.12280702       0.00000000 </v>
   <v>       0.10526316       0.10526316       0.00000000 </v>
   <v>       0.08771930       0.08771930       0.00000000 </v>
   <v>       0.07017544       0.07017544       0.00000000 </v>
   <v>       0.05263158       0.05263158       0.00000000 </v>
   <v>       0.03508772       0.03508772       0.00000000 </v>
   <v>       0.01754386       0.01754386       0.00000000 </v>
   <v>       0.00000000       0.00000000       0.00000000 </v>
  </varray>
  <varray name="weights" >
   <v>       0.01666667 </v>
   <v>       0.01666667 </v>
   <v>       0.01666667 </v>
   <v>       0.01666667 </v>
   <v>       0.01666667 </v>
   <v>       0.01666667 </v>
   <v>       0.01666667 </v>
   <v>       0.01666667 </v>
   <v>       0.01666667 </v>
   <v>       0.01666667 </v>
   <v>       0.01666667 </v>
   <v>       0.01666667 </v>
   <v>       0.01666667 </v>
   <v>       0.01666667 </v>
   <v>       0.01666667 </v>
   <v>       0.01666667 </v>
   <v>       0.01666667 </v>
   <v>       0.01666667 </v>
   <v>       0.01666667 </v>
   <v>       0.01666667 </v>
   <v>       0.01666667 </v>
   <v>       0.01666667 </v>
   <v>       0.01666667 </v>
   <v>       0.01666667 </v>
   <v>       0.01666667 </v>
   <v>       0.01666667 </v>
   <v>       0.01666667 </v>
   <v>       0.01666667 </v>
   <v>       0.01666667 </v>
   <v>       0.01666667 </v>
   <v>       0.01666667 </v>
   <v>       0.01666667 </v>
   <v>       0.01666667 </v>
   <v>       0.01666667 </v>
   <v>       0.01666667 </v>
   <v>       0.01666667 </v>
   <v>       0.01666667 </v>
   <v>       0.01666667 </v>
   <v>       0.01666667 </v>
   <v>       0.01666667 </v>
   <v>       0.01666667 </v>
   <v>       0.01666667 </v>
   <v>       0.01666667 </v>
   <v>       0.01666667 </v>
   <v>       0.01666667 </v>
   <v>       0.01666667 </v>
   <v>       0.01666667 </v>
   <v>       0.01666667 </v>
   <v>       0.01666667 </v>
   <v>       0.01666667 </v>
   <v>       0.01666667 </v>
   <v>       0.01666667 </v>
   <v>       0.01666667 </v>
   <v>       0.01666667 </v>
   <v>       0.01666667 </v>
   <v>       0.01666667 </v>
   <v>       0.01666667 </v>
   <v>       0.01666667 </v>
   <v>       0.01666667 </v>
   <v>       0.01666667 </v>
  </varray>
 </kpoints>
 <parameters>
  <separator name="general" >
   <i type="string" name="SYSTEM">Simulation for cell shape cell volume r</i>
   <i type="logical" name="LCOMPAT"> F  </i>
  </separator>
  <separator name="electronic" >
   <i type="string" name="PREC">high</i>
   <i name="ENMAX">    500.00000000</i>
   <i name="ENAUG">    644.87300000</i>
   <i name="EDIFF">      0.00001000</i>
   <i type="int" name="IALGO">    38</i>
   <i type="int" name="IWAVPR">    10</i>
   <i type="int" name="NBANDS">   240</i>
   <i name="NELECT">    354.00000000</i>
   <i type="int" name="TURBO">     0</i>
   <i type="int" name="IRESTART">     0</i>
   <i type="int" name="NREBOOT">     0</i>
   <i type="int" name="NMIN">     0</i>
   <i name="EREF">      0.00000000</i>
   <separator name="electronic smearing" >
    <i type="int" name="ISMEAR">     0</i>
    <i name="SIGMA">      0.01000000</i>
    <i name="KSPACING">      0.50000000</i>
    <i type="logical" name="KGAMMA"> T  </i>
   </separator>
   <separator name="electronic projectors" >
    <i type="logical" name="LREAL"> T  </i>
    <v name="ROPT">     -0.00040000     -0.00040000     -0.00040000     -0.00040000</v>
    <i type="int" name="LMAXPAW">  -100</i>
    <i type="int" name="LMAXMIX">     2</i>
    <i type="logical" name="NLSPLINE"> F  </i>
   </separator>
   <separator name="electronic startup" >
    <i type="int" name="ISTART">     1</i>
    <i type="int" name="ICHARG">    11</i>
    <i type="int" name="INIWAV">     1</i>
   </separator>
   <separator name="electronic spin" >
    <i type="int" name="ISPIN">     1</i>
    <i type="logical" name="LNONCOLLINEAR"> F  </i>
    <v name="MAGMOM">      1.00000000      1.00000000      1.00000000      1.00000000      1.00000000      1.00000000      1.00000000      1.00000000      1.00000000      1.00000000      1.00000000      1.00000000      1.00000000      1.00000000      1.00000000      1.00000000      1.00000000      1.00000000      1.00000000      1.00000000
      1.00000000      1.00000000      1.00000000      1.00000000      1.00000000      1.00000000      1.00000000      1.00000000      1.00000000      1.00000000      1.00000000      1.00000000      1.00000000      1.00000000      1.00000000      1.00000000      1.00000000      1.00000000      1.00000000      1.00000000
      1.00000000      1.00000000      1.00000000      1.00000000      1.00000000      1.00000000      1.00000000      1.00000000      1.00000000      1.00000000      1.00000000      1.00000000      1.00000000      1.00000000      1.00000000      1.00000000      1.00000000      1.00000000      1.00000000      1.00000000
      1.00000000      1.00000000      1.00000000      1.00000000      1.00000000      1.00000000      1.00000000      1.00000000      1.00000000      1.00000000      1.00000000      1.00000000      1.00000000      1.00000000      1.00000000      1.00000000      1.00000000      1.00000000      1.00000000      1.00000000
      1.00000000      1.00000000      1.00000000      1.00000000      1.00000000      1.00000000      1.00000000      1.00000000      1.00000000      1.00000000      1.00000000      1.00000000      1.00000000      1.00000000      1.00000000      1.00000000      1.00000000      1.00000000      1.00000000      1.00000000
      1.00000000      1.00000000      1.00000000      1.00000000      1.00000000      1.00000000      1.00000000      1.00000000      1.00000000      1.00000000      1.00000000      1.00000000      1.00000000      1.00000000      1.00000000      1.00000000      1.00000000</v>
    <i name="NUPDOWN">     -1.00000000</i>
    <i type="logical" name="LSORBIT"> F  </i>
    <v name="SAXIS">      0.00000000      0.00000000      1.00000000</v>
    <i type="logical" name="LSPIRAL"> F  </i>
    <v name="QSPIRAL">      0.00000000      0.00000000      0.00000000</v>
    <i type="logical" name="LZEROZ"> F  </i>
   </separator>
   <separator name="electronic exchange-correlation" >
    <i type="logical" name="LASPH"> F  </i>
    <i type="logical" name="LMETAGGA"> F  </i>
   </separator>
   <separator name="electronic convergence" >
    <i type="int" name="NELM">   200</i>
    <i type="int" name="NELMDL">     0</i>
    <i type="int" name="NELMIN">     2</i>
    <i name="ENINI">    500.00000000</i>
    <separator name="electronic convergence detail" >
     <i type="logical" name="LDIAG"> T  </i>
     <i type="logical" name="LSUBROT"> F  </i>
     <i name="WEIMIN">      0.00000000</i>
     <i name="EBREAK">      0.00000001</i>
     <i name="DEPER">      0.30000000</i>
     <i type="int" name="NRMM">     4</i>
     <i name="TIME">      0.40000000</i>
    </separator>
   </separator>
   <separator name="electronic mixer" >
    <i name="AMIX">      0.40000000</i>
    <i name="BMIX">      1.00000000</i>
    <i name="AMIN">      0.10000000</i>
    <i name="AMIX_MAG">      1.60000000</i>
    <i name="BMIX_MAG">      1.00000000</i>
    <separator name="electronic mixer details" >
     <i type="int" name="IMIX">     4</i>
     <i type="logical" name="MIXFIRST"> F  </i>
     <i type="int" name="MAXMIX">   -45</i>
     <i name="WC">    100.00000000</i>
     <i type="int" name="INIMIX">     1</i>
     <i type="int" name="MIXPRE">     1</i>
     <i type="int" name="MREMOVE">     5</i>
    </separator>
   </separator>
   <separator name="electronic dipolcorrection" >
    <i type="logical" name="LDIPOL"> F  </i>
    <i type="logical" name="LMONO"> F  </i>
    <i type="int" name="IDIPOL">     0</i>
    <i name="EPSILON">      1.00000000</i>
    <v name="DIPOL">   -100.00000000   -100.00000000   -100.00000000</v>
    <i name="EFIELD">      0.00000000</i>
   </separator>
  </separator>
  <separator name="grids" >
   <i type="int" name="NGX">   224</i>
   <i type="int" name="NGY">   224</i>
   <i type="int" name="NGZ">   150</i>
   <i type="int" name="NGXF">   336</i>
   <i type="int" name="NGYF">   336</i>
   <i type="int" name="NGZF">   224</i>
   <i type="logical" name="ADDGRID"> F  </i>
  </separator>
  <separator name="ionic" >
   <i type="int" name="NSW">     0</i>
   <i type="int" name="IBRION">    -1</i>
   <i type="int" name="MDALGO">     0</i>
   <i type="int" name="ISIF">     2</i>
   <i name="PSTRESS">      0.00000000</i>
   <i name="EDIFFG">     -0.01000000</i>
   <i type="int" name="NFREE">     0</i>
   <i name="POTIM">      0.30000000</i>
   <i name="SMASS">     -3.00000000</i>
   <i name="SCALEE">      1.00000000</i>
  </separator>
  <separator name="ionic md" >
   <i name="TEBEG">      0.00010000</i>
   <i name="TEEND">      0.00010000</i>
   <i type="int" name="NBLOCK">     1</i>
   <i type="int" name="KBLOCK">     1</i>
   <i type="int" name="NPACO">   256</i>
   <i name="APACO">     16.00000000</i>
  </separator>
  <separator name="symmetry" >
   <i type="int" name="ISYM">     2</i>
   <i name="SYMPREC">      0.00001000</i>
  </separator>
  <separator name="dos" >
   <i type="int" name="LORBIT">     0</i>
   <v name="RWIGS">     -1.00000000     -1.00000000     -1.00000000     -1.00000000</v>
   <i type="int" name="NEDOS">   301</i>
   <i name="EMIN">     10.00000000</i>
   <i name="EMAX">    -10.00000000</i>
   <i name="EFERMI">      0.00000000</i>
  </separator>
  <separator name="writing" >
   <i type="int" name="NWRITE">     0</i>
   <i type="logical" name="LWAVE"> F  </i>
   <i type="logical" name="LDOWNSAMPLE"> F  </i>
   <i type="logical" name="LCHARG"> F  </i>
   <i type="logical" name="LPARD"> F  </i>
   <i type="logical" name="LVTOT"> F  </i>
   <i type="logical" name="LVHAR"> F  </i>
   <i type="logical" name="LELF"> F  </i>
   <i type="logical" name="LOPTICS"> F  </i>
   <v name="STM">      0.00000000      0.00000000      0.00000000      0.00000000      0.00000000      0.00000000      0.00000000</v>
  </separator>
  <separator name="performance" >
   <i type="int" name="NPAR">    16</i>
   <i type="int" name="NSIM">     4</i>
   <i type="int" name="NBLK">    -1</i>
   <i type="logical" name="LPLANE"> T  </i>
   <i type="logical" name="LSCALAPACK"> T  </i>
   <i type="logical" name="LSCAAWARE"> F  </i>
   <i type="logical" name="LSCALU"> F  </i>
   <i type="logical" name="LASYNC"> F  </i>
   <i type="logical" name="LORBITALREAL"> F  </i>
  </separator>
  <separator name="miscellaneous" >
   <i type="int" name="IDIOT">     3</i>
   <i type="int" name="ISPECIAL">     0</i>
   <i type="logical" name="LMUSIC"> F  </i>
   <v name="POMASS">     16.00000000     12.01100000     14.00100000      1.00000000</v>
   <v name="DARWINR">      0.00000000      0.00000000      0.00000000      0.00000000</v>
   <v name="DARWINV">      1.00000000      1.00000000      1.00000000      1.00000000</v>
   <i type="logical" name="LCORR"> T  </i>
  </separator>
  <i type="logical" name="GGA_COMPAT"> T  </i>
  <i type="logical" name="LBERRY"> F  </i>
  <i type="int" name="ICORELEVEL">     0</i>
  <i type="logical" name="LDAU"> F  </i>
  <i type="int" name="I_CONSTRAINED_M">     0</i>
  <separator name="electronic exchange-correlation" >
   <i type="string" name="GGA">PE</i>
   <i type="int" name="VOSKOWN">     0</i>
   <i type="logical" name="LHFCALC"> F  </i>
   <i type="string" name="PRECFOCK"></i>
   <i type="logical" name="LSYMGRAD"> F  </i>
   <i type="logical" name="LHFONE"> F  </i>
   <i type="logical" name="LRHFCALC"> F  </i>
   <i type="logical" name="LTHOMAS"> F  </i>
   <i type="logical" name="LMODELHF"> F  </i>
   <i name="ENCUT4O">     -1.00000000</i>
   <i type="int" name="EXXOEP">     0</i>
   <i type="int" name="FOURORBIT">     0</i>
   <i name="AEXX">      0.00000000</i>
   <i name="HFALPHA">      0.00000000</i>
   <i name="MCALPHA">      0.00000000</i>
   <i name="ALDAX">      1.00000000</i>
   <i name="AGGAX">      1.00000000</i>
   <i name="ALDAC">      1.00000000</i>
   <i name="AGGAC">      1.00000000</i>
   <i type="int" name="NKREDX">     1</i>
   <i type="int" name="NKREDY">     1</i>
   <i type="int" name="NKREDZ">     1</i>
   <i type="logical" name="SHIFTRED"> F  </i>
   <i type="logical" name="ODDONLY"> F  </i>
   <i type="logical" name="EVENONLY"> F  </i>
   <i type="int" name="LMAXFOCK">     0</i>
   <i type="int" name="NMAXFOCKAE">     0</i>
   <i type="logical" name="LFOCKAEDFT"> F  </i>
   <i name="HFSCREEN">      0.00000000</i>
   <i name="HFSCREENC">      0.00000000</i>
   <i type="int" name="NBANDSGWLOW">     0</i>
  </separator>
  <separator name="vdW DFT" >
   <i type="logical" name="LUSE_VDW"> F  </i>
   <i name="Zab_VDW">     -0.84910000</i>
   <i name="PARAM1">      0.12340000</i>
   <i name="PARAM2">      1.00000000</i>
   <i name="PARAM3">      0.00000000</i>
  </separator>
  <separator name="model GW" >
   <i type="int" name="MODEL_GW">     0</i>
   <i name="MODEL_EPS0">     78.80874271</i>
   <i name="MODEL_ALPHA">      1.00000000</i>
  </separator>
  <separator name="linear response parameters" >
   <i type="logical" name="LEPSILON"> F  </i>
   <i type="logical" name="LRPA"> F  </i>
   <i type="logical" name="LNABLA"> F  </i>
   <i type="logical" name="LVEL"> F  </i>
   <i type="int" name="KINTER">     0</i>
   <i name="CSHIFT">      0.10000000</i>
   <i name="OMEGAMAX">     -1.00000000</i>
   <i name="DEG_THRESHOLD">      0.00200000</i>
   <i name="RTIME">     -0.10000000</i>
   <i name="WPLASMAI">      0.00000000</i>
   <v name="DFIELD">      0.00000000      0.00000000      0.00000000</v>
   <v name="WPLASMA">      0.00000000      0.00000000      0.00000000      0.00000000      0.00000000      0.00000000      0.00000000      0.00000000      0.00000000</v>
  </separator>
  <separator name="orbital magnetization" >
   <i type="logical" name="NUCIND"> F  </i>
   <v name="MAGPOS">      0.00000000      0.00000000      0.00000000</v>
   <i type="logical" name="LNICSALL"> T  </i>
   <i type="logical" name="ORBITALMAG"> F  </i>
   <i type="logical" name="LMAGBLOCH"> F  </i>
   <i type="logical" name="LCHIMAG"> F  </i>
   <i type="logical" name="LGAUGE"> T  </i>
   <i type="int" name="MAGATOM">     0</i>
   <v name="MAGDIPOL">      0.00000000      0.00000000      0.00000000</v>
   <v name="AVECCONST">      0.00000000      0.00000000      0.00000000</v>
  </separator>
  <separator name="response functions" >
   <i type="logical" name="LADDER"> F  </i>
   <i type="logical" name="LRPAFORCE"> F  </i>
   <i type="logical" name="LFXC"> F  </i>
   <i type="logical" name="LHARTREE"> T  </i>
   <i type="int" name="IBSE">     0</i>
   <v type="int" name="KPOINT">    -1     0     0     0</v>
   <i type="logical" name="LTCTE"> F  </i>
   <i type="logical" name="LTETE"> F  </i>
   <i type="logical" name="LTRIPLET"> F  </i>
   <i type="logical" name="LFXCEPS"> F  </i>
   <i type="logical" name="LFXHEG"> F  </i>
   <i type="int" name="NATURALO">     2</i>
   <i type="logical" name="L2ORDER"> F  </i>
   <i type="logical" name="LMP2LT"> F  </i>
   <i type="logical" name="LUSEW"> F  </i>
   <i name="ENCUTGW">     -2.00000000</i>
   <i name="ENCUTGWSOFT">     -2.00000000</i>
   <i name="ENCUTLF">     -1.00000000</i>
   <i type="int" name="LMAXMP2">    -1</i>
   <i name="SCISSOR">      0.00000000</i>
   <i type="int" name="NOMEGA">     0</i>
   <i type="int" name="NOMEGAR">     0</i>
   <i type="int" name="NBANDSGW">    -1</i>
   <i type="int" name="NBANDSO">    -1</i>
   <i type="int" name="NBANDSV">    -1</i>
   <i type="int" name="NELM">   200</i>
   <i type="int" name="NELMHF">     1</i>
   <i type="int" name="DIM">     3</i>
   <i type="int" name="ANTIRES">     0</i>
   <i name="OMEGAMAX">    -30.00000000</i>
   <i name="OMEGAMIN">    -30.00000000</i>
   <i name="OMEGATL">   -200.00000000</i>
   <i type="int" name="OMEGAGRID">   140</i>
   <i name="CSHIFT">     -0.10000000</i>
   <i type="logical" name="SELFENERGY"> F  </i>
   <i type="logical" name="LSPECTRAL"> F  </i>
   <i type="logical" name="LSPECTRALGW"> F  </i>
   <i type="logical" name="LSINGLES"> F  </i>
   <i type="logical" name="LFERMIGW"> F  </i>
   <i type="logical" name="ODDONLYGW"> F  </i>
   <i type="logical" name="EVENONLYGW"> F  </i>
   <i type="int" name="NKREDLFX">     1</i>
   <i type="int" name="NKREDLFY">     1</i>
   <i type="int" name="NKREDLFZ">     1</i>
   <i type="int" name="MAXMEM">  2800</i>
   <i type="int" name="TELESCOPE">     0</i>
   <i type="int" name="TAUPAR">     1</i>
   <i type="int" name="OMEGAPAR">    -1</i>
   <i name="LAMBDA">      1.00000000</i>
  </separator>
  <separator name="External order field" >
   <i name="OFIELD_KAPPA">      0.00000000</i>
   <v name="OFIELD_K">      0.00000000      0.00000000      0.00000000</v>
   <i name="OFIELD_Q6_NEAR">      0.00000000</i>
   <i name="OFIELD_Q6_FAR">      0.00000000</i>
   <i name="OFIELD_A">      0.00000000</i>
  </separator>
  <separator name="solvation model" >
   <i type="logical" name="LSOL"> F  </i>
  </separator>
 </parameters>
 <atominfo>
  <atoms>     117 </atoms>
  <types>       4 </types>
  <array name="atoms" >
   <dimension dim="1">ion</dimension>
   <field type="string">element</field>
   <field type="int">atomtype</field>
   <set>
    <rc><c>O </c><c>   1</c></rc>
    <rc><c>O </c><c>   1</c></rc>
    <rc><c>O </c><c>   1</c></rc>
    <rc><c>C </c><c>   2</c></rc>
    <rc><c>C </c><c>   2</c></rc>
    <rc><c>C </c><c>   2</c></rc>
    <rc><c>C </c><c>   2</c></rc>
    <rc><c>C </c><c>   2</c></rc>
    <rc><c>C </c><c>   2</c></rc>
    <rc><c>C </c><c>   2</c></rc>
    <rc><c>C </c><c>   2</c></rc>
    <rc><c>C </c><c>   2</c></rc>
    <rc><c>C </c><c>   2</c></rc>
    <rc><c>C </c><c>   2</c></rc>
    <rc><c>C </c><c>   2</c></rc>
    <rc><c>C </c><c>   2</c></rc>
    <rc><c>C </c><c>   2</c></rc>
    <rc><c>C </c><c>   2</c></rc>
    <rc><c>C </c><c>   2</c></rc>
    <rc><c>C </c><c>   2</c></rc>
    <rc><c>C </c><c>   2</c></rc>
    <rc><c>C </c><c>   2</c></rc>
    <rc><c>C </c><c>   2</c></rc>
    <rc><c>C </c><c>   2</c></rc>
    <rc><c>C </c><c>   2</c></rc>
    <rc><c>C </c><c>   2</c></rc>
    <rc><c>C </c><c>   2</c></rc>
    <rc><c>C </c><c>   2</c></rc>
    <rc><c>C </c><c>   2</c></rc>
    <rc><c>C </c><c>   2</c></rc>
    <rc><c>C </c><c>   2</c></rc>
    <rc><c>C </c><c>   2</c></rc>
    <rc><c>C </c><c>   2</c></rc>
    <rc><c>C </c><c>   2</c></rc>
    <rc><c>C </c><c>   2</c></rc>
    <rc><c>C </c><c>   2</c></rc>
    <rc><c>C </c><c>   2</c></rc>
    <rc><c>C </c><c>   2</c></rc>
    <rc><c>C </c><c>   2</c></rc>
    <rc><c>C </c><c>   2</c></rc>
    <rc><c>C </c><c>   2</c></rc>
    <rc><c>C </c><c>   2</c></rc>
    <rc><c>C </c><c>   2</c></rc>
    <rc><c>C </c><c>   2</c></rc>
    <rc><c>C </c><c>   2</c></rc>
    <rc><c>C </c><c>   2</c></rc>
    <rc><c>C </c><c>   2</c></rc>
    <rc><c>C </c><c>   2</c></rc>
    <rc><c>C </c><c>   2</c></rc>
    <rc><c>C </c><c>   2</c></rc>
    <rc><c>C </c><c>   2</c></rc>
    <rc><c>C </c><c>   2</c></rc>
    <rc><c>C </c><c>   2</c></rc>
    <rc><c>C </c><c>   2</c></rc>
    <rc><c>C </c><c>   2</c></rc>
    <rc><c>C </c><c>   2</c></rc>
    <rc><c>C </c><c>   2</c></rc>
    <rc><c>C </c><c>   2</c></rc>
    <rc><c>C </c><c>   2</c></rc>
    <rc><c>C </c><c>   2</c></rc>
    <rc><c>C </c><c>   2</c></rc>
    <rc><c>C </c><c>   2</c></rc>
    <rc><c>C </c><c>   2</c></rc>
    <rc><c>C </c><c>   2</c></rc>
    <rc><c>C </c><c>   2</c></rc>
    <rc><c>C </c><c>   2</c></rc>
    <rc><c>C </c><c>   2</c></rc>
    <rc><c>C </c><c>   2</c></rc>
    <rc><c>C </c><c>   2</c></rc>
    <rc><c>N </c><c>   3</c></rc>
    <rc><c>N </c><c>   3</c></rc>
    <rc><c>N </c><c>   3</c></rc>
    <rc><c>N </c><c>   3</c></rc>
    <rc><c>N </c><c>   3</c></rc>
    <rc><c>N </c><c>   3</c></rc>
    <rc><c>H </c><c>   4</c></rc>
    <rc><c>H </c><c>   4</c></rc>
    <rc><c>H </c><c>   4</c></rc>
    <rc><c>H </c><c>   4</c></rc>
    <rc><c>H </c><c>   4</c></rc>
    <rc><c>H </c><c>   4</c></rc>
    <rc><c>H </c><c>   4</c></rc>
    <rc><c>H </c><c>   4</c></rc>
    <rc><c>H </c><c>   4</c></rc>
    <rc><c>H </c><c>   4</c></rc>
    <rc><c>H </c><c>   4</c></rc>
    <rc><c>H </c><c>   4</c></rc>
    <rc><c>H </c><c>   4</c></rc>
    <rc><c>H </c><c>   4</c></rc>
    <rc><c>H </c><c>   4</c></rc>
    <rc><c>H </c><c>   4</c></rc>
    <rc><c>H </c><c>   4</c></rc>
    <rc><c>H </c><c>   4</c></rc>
    <rc><c>H </c><c>   4</c></rc>
    <rc><c>H </c><c>   4</c></rc>
    <rc><c>H </c><c>   4</c></rc>
    <rc><c>H </c><c>   4</c></rc>
    <rc><c>H </c><c>   4</c></rc>
    <rc><c>H </c><c>   4</c></rc>
    <rc><c>H </c><c>   4</c></rc>
    <rc><c>H </c><c>   4</c></rc>
    <rc><c>H </c><c>   4</c></rc>
    <rc><c>H </c><c>   4</c></rc>
    <rc><c>H </c><c>   4</c></rc>
    <rc><c>H </c><c>   4</c></rc>
    <rc><c>H </c><c>   4</c></rc>
    <rc><c>H </c><c>   4</c></rc>
    <rc><c>H </c><c>   4</c></rc>
    <rc><c>H </c><c>   4</c></rc>
    <rc><c>H </c><c>   4</c></rc>
    <rc><c>H </c><c>   4</c></rc>
    <rc><c>H </c><c>   4</c></rc>
    <rc><c>H </c><c>   4</c></rc>
    <rc><c>H </c><c>   4</c></rc>
    <rc><c>H </c><c>   4</c></rc>
    <rc><c>H </c><c>   4</c></rc>
    <rc><c>H </c><c>   4</c></rc>
   </set>
  </array>
  <array name="atomtypes" >
   <dimension dim="1">type</dimension>
   <field type="int">atomspertype</field>
   <field type="string">element</field>
   <field>mass</field>
   <field>valence</field>
   <field type="string">pseudopotential</field>
   <set>
    <rc><c>   3</c><c>O </c><c>     16.00000000</c><c>      6.00000000</c><c>  PAW_PBE O 08Apr2002                   </c></rc>
    <rc><c>  66</c><c>C </c><c>     12.01100000</c><c>      4.00000000</c><c>  PAW_PBE C 08Apr2002                   </c></rc>
    <rc><c>   6</c><c>N </c><c>     14.00100000</c><c>      5.00000000</c><c>  PAW_PBE N 08Apr2002                   </c></rc>
    <rc><c>  42</c><c>H </c><c>      1.00000000</c><c>      1.00000000</c><c>  PAW_PBE H 15Jun2001                   </c></rc>
   </set>
  </array>
 </atominfo>
 <structure name="initialpos" >
  <crystal>
   <varray name="basis" >
    <v>      29.79312382      -0.00224863       0.00000000 </v>
    <v>     -14.89850917      25.79181516       0.00000000 </v>
    <v>       0.00000000       0.00000000      20.00000000 </v>
   </varray>
   <i name="volume">  15367.70482771 </i>
   <varray name="rec_basis" >
    <v>       0.03356626       0.01938937       0.00000000 </v>
    <v>       0.00000293       0.03877368       0.00000000 </v>
    <v>       0.00000000       0.00000000       0.05000000 </v>
   </varray>
  </crystal>
  <varray name="positions" >
   <v>       0.51151975       0.01241229       0.68971208 </v>
   <v>       0.50908172       0.49520898       0.68984202 </v>
   <v>       0.99489513       0.49496412       0.68981204 </v>
   <v>       0.05760438       0.52800448       0.50822017 </v>
   <v>       0.02723045       0.51281056       0.44978114 </v>
   <v>       0.28342735       0.64084452       0.50197726 </v>
   <v>       0.31159862       0.69524398       0.50193581 </v>
   <v>       0.36598536       0.72337121       0.50197319 </v>
   <v>       0.39219998       0.69520840       0.50198476 </v>
   <v>       0.36591541       0.64080481       0.50205418 </v>
   <v>       0.31152706       0.61456056       0.50199442 </v>
   <v>       0.39490099       0.78116770       0.50253022 </v>
   <v>       0.36900602       0.80983888       0.50295388 </v>
   <v>       0.39588814       0.86382603       0.50436652 </v>
   <v>       0.45012466       0.89159640       0.50552022 </v>
   <v>       0.47660292       0.86383854       0.50466065 </v>
   <v>       0.44947824       0.80984861       0.50318760 </v>
   <v>       0.22564269       0.61198813       0.50252929 </v>
   <v>       0.19703033       0.63794534       0.50319460 </v>
   <v>       0.14305735       0.61110662       0.50457240 </v>
   <v>       0.11525615       0.55685521       0.50540228 </v>
   <v>       0.14295753       0.53032593       0.50432436 </v>
   <v>       0.19692737       0.55740310       0.50292948 </v>
   <v>       0.39480260       0.61191587       0.50269464 </v>
   <v>       0.36889064       0.55732743       0.50323191 </v>
   <v>       0.39575584       0.53022848       0.50469466 </v>
   <v>       0.44999660       0.55673184       0.50571172 </v>
   <v>       0.47648512       0.61098187       0.50477064 </v>
   <v>       0.44938135       0.63784364       0.50331401 </v>
   <v>       0.72681204       0.36265326       0.50216812 </v>
   <v>       0.69867402       0.30824790       0.50202776 </v>
   <v>       0.64428625       0.28009166       0.50208179 </v>
   <v>       0.61802946       0.30821548       0.50207851 </v>
   <v>       0.64427701       0.36261608       0.50215392 </v>
   <v>       0.69867399       0.38890499       0.50221133 </v>
   <v>       0.61539503       0.22231206       0.50320422 </v>
   <v>       0.64126645       0.19360984       0.50410781 </v>
   <v>       0.61435939       0.13966741       0.50708969 </v>
   <v>       0.56015807       0.11195571       0.50956727 </v>
   <v>       0.53371319       0.13969412       0.50670587 </v>
   <v>       0.56081024       0.19363025       0.50376948 </v>
   <v>       0.78458377       0.39152800       0.50334076 </v>
   <v>       0.81322670       0.36559539       0.50435598 </v>
   <v>       0.86714803       0.39243852       0.50741611 </v>
   <v>       0.89493147       0.44665375       0.50986866 </v>
   <v>       0.86725392       0.47316439       0.50690745 </v>
   <v>       0.81332357       0.44612506       0.50386840 </v>
   <v>       0.61534584       0.39144874       0.50327465 </v>
   <v>       0.64118227       0.44604227       0.50377426 </v>
   <v>       0.61426715       0.47305104       0.50676737 </v>
   <v>       0.56006961       0.44650568       0.50969197 </v>
   <v>       0.53364996       0.39228553       0.50722204 </v>
   <v>       0.56076334       0.36547864       0.50424298 </v>
   <v>       0.53122948       0.05422786       0.51250062 </v>
   <v>       0.47887396       0.94927560       0.50826872 </v>
   <v>       0.51655684       0.02409392       0.57178042 </v>
   <v>       0.52684073       0.04413645       0.64420459 </v>
   <v>       0.55509188       0.10146742       0.65962407 </v>
   <v>       0.53114171       0.47530307       0.51265691 </v>
   <v>       0.47877253       0.52785527       0.50842343 </v>
   <v>       0.51616163       0.49045748       0.57194792 </v>
   <v>       0.52578521       0.48012878       0.64442458 </v>
   <v>       0.55499758       0.45203340       0.65988115 </v>
   <v>       0.95266939       0.47547498       0.51274579 </v>
   <v>       0.98291564       0.49045000       0.57194422 </v>
   <v>       0.96305783       0.48007537       0.64445475 </v>
   <v>       0.90575692       0.45218649       0.65999609 </v>
   <v>       0.49342989       0.97955931       0.44975409 </v>
   <v>       0.49356291       0.51237506       0.44990193 </v>
   <v>       0.03502723       0.51660489       0.56817148 </v>
   <v>       0.49056861       0.97196919       0.56816325 </v>
   <v>       0.49025478       0.51665163       0.56831436 </v>
   <v>       0.51919810       0.03118107       0.45186225 </v>
   <v>       0.51938075       0.48659428       0.45200855 </v>
   <v>       0.97562746       0.48701403       0.45203382 </v>
   <v>       0.04526816       0.52183625       0.40028416 </v>
   <v>       0.12227440       0.63260774       0.50579405 </v>
   <v>       0.21675993       0.68013911       0.50308948 </v>
   <v>       0.12209812       0.48802201       0.50535109 </v>
   <v>       0.21658117       0.53488375       0.50258692 </v>
   <v>       0.32670832       0.53481855       0.50293725 </v>
   <v>       0.37427974       0.48792875       0.50582014 </v>
   <v>       0.47188230       0.68003673       0.50308258 </v>
   <v>       0.51877499       0.63246768       0.50590261 </v>
   <v>       0.47194665       0.79013775       0.50299406 </v>
   <v>       0.51889157       0.88465057       0.50585714 </v>
   <v>       0.37442408       0.88464882       0.50535889 </v>
   <v>       0.32682387       0.79013934       0.50261061 </v>
   <v>       0.29057317       0.71630593       0.50213968 </v>
   <v>       0.29044867       0.57245474       0.50222510 </v>
   <v>       0.43429559       0.71624510       0.50223541 </v>
   <v>       0.88796786       0.37096512       0.50821572 </v>
   <v>       0.79355694       0.32341900       0.50288394 </v>
   <v>       0.88815307       0.51548011       0.50729880 </v>
   <v>       0.79370797       0.46866371       0.50199045 </v>
   <v>       0.68333783       0.46860493       0.50190012 </v>
   <v>       0.63566828       0.51536937       0.50715866 </v>
   <v>       0.53828422       0.32330014       0.50278516 </v>
   <v>       0.49134646       0.37077486       0.50797942 </v>
   <v>       0.53832149       0.21329378       0.50198888 </v>
   <v>       0.49140980       0.11882656       0.50714405 </v>
   <v>       0.63575753       0.11876908       0.50780338 </v>
   <v>       0.68343205       0.21324824       0.50257695 </v>
   <v>       0.71971612       0.28719745       0.50229718 </v>
   <v>       0.71971377       0.43101282       0.50276848 </v>
   <v>       0.57593451       0.28714488       0.50242964 </v>
   <v>       0.53516800       0.12069004       0.63799992 </v>
   <v>       0.55725289       0.10595531       0.71407154 </v>
   <v>       0.59432330       0.12111873       0.63822003 </v>
   <v>       0.59408832       0.47199681       0.63807643 </v>
   <v>       0.55745487       0.44996199       0.71432210 </v>
   <v>       0.53543950       0.41273860       0.63861464 </v>
   <v>       0.88589240       0.41288409       0.63876527 </v>
   <v>       0.90126768       0.45014147       0.71444330 </v>
   <v>       0.88671429       0.47223164       0.63820960 </v>
   <v>       0.48391405       0.96144181       0.40031257 </v>
   <v>       0.48418651       0.52111879       0.40045710 </v>
  </varray>
 </structure>
 <calculation>
  <scstep>
   <time name="dav">  619.32  626.20</time>
   <time name="total">  619.59  626.47</time>
   <energy>
    <i name="alphaZ">     38.15829001 </i>
    <i name="ewald">  42616.53586023 </i>
    <i name="hartreedc"> -53311.03623945 </i>
    <i name="XCdc">   1224.61807750 </i>
    <i name="pawpsdc">  32065.36573382 </i>
    <i name="pawaedc"> -32125.61428023 </i>
    <i name="eentropy">     -0.00000000 </i>
    <i name="bandstr">  -4442.86306676 </i>
    <i name="atom">  13120.50428580 </i>
    <i name="e_fr_energy">   -814.33133909 </i>
    <i name="e_wo_entrp">   -814.33133909 </i>
    <i name="e_0_energy">   -814.33133909 </i>
   </energy>
  </scstep>
  <scstep>
   <time name="dav">  707.35  715.22</time>
   <time name="total">  707.36  715.23</time>
   <energy>
    <i name="e_fr_energy">   -814.74251492 </i>
    <i name="e_wo_entrp">   -814.74251492 </i>
    <i name="e_0_energy">   -814.74251492 </i>
   </energy>
  </scstep>
  <scstep>
   <time name="dav">  792.55  801.52</time>
   <time name="total">  792.55  801.53</time>
   <energy>
    <i name="e_fr_energy">   -814.75533175 </i>
    <i name="e_wo_entrp">   -814.75533175 </i>
    <i name="e_0_energy">   -814.75533175 </i>
   </energy>
  </scstep>
  <scstep>
   <time name="dav">  692.37  700.14</time>
   <time name="total">  692.37  700.14</time>
   <energy>
    <i name="e_fr_energy">   -814.75553266 </i>
    <i name="e_wo_entrp">   -814.75553266 </i>
    <i name="e_0_energy">   -814.75553266 </i>
   </energy>
  </scstep>
  <scstep>
   <time name="dav">  672.34  679.72</time>
   <time name="total">  672.34  679.72</time>
   <energy>
    <i name="e_fr_energy">   -814.75554299 </i>
    <i name="e_wo_entrp">   -814.75554299 </i>
    <i name="e_0_energy">   -814.75554299 </i>
   </energy>
  </scstep>
  <scstep>
   <time name="dav">  526.85  532.64</time>
   <time name="total">  526.86  532.65</time>
   <energy>
    <i name="alphaZ">     38.15829001 </i>
    <i name="ewald">  42616.53586023 </i>
    <i name="hartreedc"> -53311.03623945 </i>
    <i name="XCdc">   1224.61807750 </i>
    <i name="pawpsdc">  32065.36573382 </i>
    <i name="pawaedc"> -32125.61428023 </i>
    <i name="eentropy">     -0.00000000 </i>
    <i name="bandstr">  -4443.28727091 </i>
    <i name="atom">  13120.50428580 </i>
    <i name="e_fr_energy">   -814.75554324 </i>
    <i name="e_wo_entrp">   -814.75554324 </i>
    <i name="e_0_energy">   -814.75554324 </i>
   </energy>
  </scstep>
  <structure>
   <crystal>
    <varray name="basis" >
     <v>      29.79312382      -0.00224863       0.00000000 </v>
     <v>     -14.89850917      25.79181516       0.00000000 </v>
     <v>       0.00000000       0.00000000      20.00000000 </v>
    </varray>
    <i name="volume">  15367.70482771 </i>
    <varray name="rec_basis" >
     <v>       0.03356626       0.01938937       0.00000000 </v>
     <v>       0.00000293       0.03877368       0.00000000 </v>
     <v>       0.00000000       0.00000000       0.05000000 </v>
    </varray>
   </crystal>
   <varray name="positions" >
    <v>       0.51151975       0.01241229       0.68971208 </v>
    <v>       0.50908172       0.49520898       0.68984202 </v>
    <v>       0.99489513       0.49496412       0.68981204 </v>
    <v>       0.05760438       0.52800448       0.50822017 </v>
    <v>       0.02723045       0.51281056       0.44978114 </v>
    <v>       0.28342735       0.64084452       0.50197726 </v>
    <v>       0.31159862       0.69524398       0.50193581 </v>
    <v>       0.36598536       0.72337121       0.50197319 </v>
    <v>       0.39219998       0.69520840       0.50198476 </v>
    <v>       0.36591541       0.64080481       0.50205418 </v>
    <v>       0.31152706       0.61456056       0.50199442 </v>
    <v>       0.39490099       0.78116770       0.50253022 </v>
    <v>       0.36900602       0.80983888       0.50295388 </v>
    <v>       0.39588814       0.86382603       0.50436652 </v>
    <v>       0.45012466       0.89159640       0.50552022 </v>
    <v>       0.47660292       0.86383854       0.50466065 </v>
    <v>       0.44947824       0.80984861       0.50318760 </v>
    <v>       0.22564269       0.61198813       0.50252929 </v>
    <v>       0.19703033       0.63794534       0.50319460 </v>
    <v>       0.14305735       0.61110662       0.50457240 </v>
    <v>       0.11525615       0.55685521       0.50540228 </v>
    <v>       0.14295753       0.53032593       0.50432436 </v>
    <v>       0.19692737       0.55740310       0.50292948 </v>
    <v>       0.39480260       0.61191587       0.50269464 </v>
    <v>       0.36889064       0.55732743       0.50323191 </v>
    <v>       0.39575584       0.53022848       0.50469466 </v>
    <v>       0.44999660       0.55673184       0.50571172 </v>
    <v>       0.47648512       0.61098187       0.50477064 </v>
    <v>       0.44938135       0.63784364       0.50331401 </v>
    <v>       0.72681204       0.36265326       0.50216812 </v>
    <v>       0.69867402       0.30824790       0.50202776 </v>
    <v>       0.64428625       0.28009166       0.50208179 </v>
    <v>       0.61802946       0.30821548       0.50207851 </v>
    <v>       0.64427701       0.36261608       0.50215392 </v>
    <v>       0.69867399       0.38890499       0.50221133 </v>
    <v>       0.61539503       0.22231206       0.50320422 </v>
    <v>       0.64126645       0.19360984       0.50410781 </v>
    <v>       0.61435939       0.13966741       0.50708969 </v>
    <v>       0.56015807       0.11195571       0.50956727 </v>
    <v>       0.53371319       0.13969412       0.50670587 </v>
    <v>       0.56081024       0.19363025       0.50376948 </v>
    <v>       0.78458377       0.39152800       0.50334076 </v>
    <v>       0.81322670       0.36559539       0.50435598 </v>
    <v>       0.86714803       0.39243852       0.50741611 </v>
    <v>       0.89493147       0.44665375       0.50986866 </v>
    <v>       0.86725392       0.47316439       0.50690745 </v>
    <v>       0.81332357       0.44612506       0.50386840 </v>
    <v>       0.61534584       0.39144874       0.50327465 </v>
    <v>       0.64118227       0.44604227       0.50377426 </v>
    <v>       0.61426715       0.47305104       0.50676737 </v>
    <v>       0.56006961       0.44650568       0.50969197 </v>
    <v>       0.53364996       0.39228553       0.50722204 </v>
    <v>       0.56076334       0.36547864       0.50424298 </v>
    <v>       0.53122948       0.05422786       0.51250062 </v>
    <v>       0.47887396       0.94927560       0.50826872 </v>
    <v>       0.51655684       0.02409392       0.57178042 </v>
    <v>       0.52684073       0.04413645       0.64420459 </v>
    <v>       0.55509188       0.10146742       0.65962407 </v>
    <v>       0.53114171       0.47530307       0.51265691 </v>
    <v>       0.47877253       0.52785527       0.50842343 </v>
    <v>       0.51616163       0.49045748       0.57194792 </v>
    <v>       0.52578521       0.48012878       0.64442458 </v>
    <v>       0.55499758       0.45203340       0.65988115 </v>
    <v>       0.95266939       0.47547498       0.51274579 </v>
    <v>       0.98291564       0.49045000       0.57194422 </v>
    <v>       0.96305783       0.48007537       0.64445475 </v>
    <v>       0.90575692       0.45218649       0.65999609 </v>
    <v>       0.49342989       0.97955931       0.44975409 </v>
    <v>       0.49356291       0.51237506       0.44990193 </v>
    <v>       0.03502723       0.51660489       0.56817148 </v>
    <v>       0.49056861       0.97196919       0.56816325 </v>
    <v>       0.49025478       0.51665163       0.56831436 </v>
    <v>       0.51919810       0.03118107       0.45186225 </v>
    <v>       0.51938075       0.48659428       0.45200855 </v>
    <v>       0.97562746       0.48701403       0.45203382 </v>
    <v>       0.04526816       0.52183625       0.40028416 </v>
    <v>       0.12227440       0.63260774       0.50579405 </v>
    <v>       0.21675993       0.68013911       0.50308948 </v>
    <v>       0.12209812       0.48802201       0.50535109 </v>
    <v>       0.21658117       0.53488375       0.50258692 </v>
    <v>       0.32670832       0.53481855       0.50293725 </v>
    <v>       0.37427974       0.48792875       0.50582014 </v>
    <v>       0.47188230       0.68003673       0.50308258 </v>
    <v>       0.51877499       0.63246768       0.50590261 </v>
    <v>       0.47194665       0.79013775       0.50299406 </v>
    <v>       0.51889157       0.88465057       0.50585714 </v>
    <v>       0.37442408       0.88464882       0.50535889 </v>
    <v>       0.32682387       0.79013934       0.50261061 </v>
    <v>       0.29057317       0.71630593       0.50213968 </v>
    <v>       0.29044867       0.57245474       0.50222510 </v>
    <v>       0.43429559       0.71624510       0.50223541 </v>
    <v>       0.88796786       0.37096512       0.50821572 </v>
    <v>       0.79355694       0.32341900       0.50288394 </v>
    <v>       0.88815307       0.51548011       0.50729880 </v>
    <v>       0.79370797       0.46866371       0.50199045 </v>
    <v>       0.68333783       0.46860493       0.50190012 </v>
    <v>       0.63566828       0.51536937       0.50715866 </v>
    <v>       0.53828422       0.32330014       0.50278516 </v>
    <v>       0.49134646       0.37077486       0.50797942 </v>
    <v>       0.53832149       0.21329378       0.50198888 </v>
    <v>       0.49140980       0.11882656       0.50714405 </v>
    <v>       0.63575753       0.11876908       0.50780338 </v>
    <v>       0.68343205       0.21324824       0.50257695 </v>
    <v>       0.71971612       0.28719745       0.50229718 </v>
    <v>       0.71971377       0.43101282       0.50276848 </v>
    <v>       0.57593451       0.28714488       0.50242964 </v>
    <v>       0.53516800       0.12069004       0.63799992 </v>
    <v>       0.55725289       0.10595531       0.71407154 </v>
    <v>       0.59432330       0.12111873       0.63822003 </v>
    <v>       0.59408832       0.47199681       0.63807643 </v>
    <v>       0.55745487       0.44996199       0.71432210 </v>
    <v>       0.53543950       0.41273860       0.63861464 </v>
    <v>       0.88589240       0.41288409       0.63876527 </v>
    <v>       0.90126768       0.45014147       0.71444330 </v>
    <v>       0.88671429       0.47223164       0.63820960 </v>
    <v>       0.48391405       0.96144181       0.40031257 </v>
    <v>       0.48418651       0.52111879       0.40045710 </v>
   </varray>
  </structure>
  <varray name="forces" >
   <v>       0.00763659      -0.00215448       0.00196971 </v>
   <v>      -0.00600329       0.00370978       0.00293200 </v>
   <v>       0.00174512      -0.00262867      -0.00032380 </v>
   <v>       0.00270775       0.00146937      -0.00416350 </v>
   <v>       0.00273726       0.00361937      -0.00091857 </v>
   <v>       0.00225392       0.00068247      -0.00013146 </v>
   <v>       0.00196093      -0.00169897      -0.00224040 </v>
   <v>      -0.00059166      -0.00315285      -0.00100381 </v>
   <v>      -0.00144363      -0.00181081       0.00102849 </v>
   <v>      -0.00093637       0.00330314      -0.00236217 </v>
   <v>      -0.00077729       0.00403114      -0.00249273 </v>
   <v>       0.00011209       0.00115648      -0.00092723 </v>
   <v>      -0.00005090      -0.00017958       0.00041161 </v>
   <v>      -0.00276798      -0.00354684      -0.00020269 </v>
   <v>       0.00030049      -0.00010024       0.00075411 </v>
   <v>      -0.00221672      -0.00069523       0.00182989 </v>
   <v>       0.00006515      -0.00155942       0.00187353 </v>
   <v>       0.00274405       0.00178425      -0.00166540 </v>
   <v>      -0.00055091      -0.00112992       0.00015101 </v>
   <v>      -0.00192257       0.00048895       0.00048384 </v>
   <v>       0.00198258      -0.00037659       0.00036475 </v>
   <v>       0.00197783      -0.00157801      -0.00057667 </v>
   <v>       0.00034803      -0.00009034      -0.00044475 </v>
   <v>       0.00124522      -0.00030934      -0.00084636 </v>
   <v>       0.00015486       0.00127348       0.00055327 </v>
   <v>      -0.00015411       0.00092697      -0.00091614 </v>
   <v>       0.00127315      -0.00087554       0.00011864 </v>
   <v>      -0.00148295      -0.00059970      -0.00031949 </v>
   <v>      -0.00124711      -0.00077201       0.00061721 </v>
   <v>      -0.00205044      -0.00110220      -0.00258117 </v>
   <v>      -0.00163872       0.00180001      -0.00065733 </v>
   <v>       0.00038723       0.00100395       0.00016477 </v>
   <v>       0.00333255       0.00162814      -0.00286562 </v>
   <v>       0.00121913       0.00036631       0.00096366 </v>
   <v>       0.00009700      -0.00281513       0.00006441 </v>
   <v>       0.00101790       0.00399155      -0.00156045 </v>
   <v>      -0.00219465      -0.00036183       0.00034493 </v>
   <v>       0.00266482      -0.00096892       0.00069196 </v>
   <v>      -0.00089725       0.00264940      -0.00245456 </v>
   <v>      -0.00123187       0.00044156      -0.00053152 </v>
   <v>       0.00006192      -0.00011189      -0.00087226 </v>
   <v>      -0.00340411      -0.00407012       0.00060870 </v>
   <v>      -0.00093580       0.00064188       0.00218137 </v>
   <v>       0.00226323      -0.00068627       0.00145368 </v>
   <v>       0.00027565      -0.00036897       0.00091327 </v>
   <v>       0.00033344       0.00089505       0.00003617 </v>
   <v>       0.00127952      -0.00122440       0.00159594 </v>
   <v>       0.00617785      -0.00238884       0.00091857 </v>
   <v>      -0.00204186      -0.00041276       0.00008777 </v>
   <v>      -0.00248290       0.00121783       0.00178317 </v>
   <v>       0.00011183      -0.00182689      -0.00082240 </v>
   <v>      -0.00139217       0.00015895       0.00203615 </v>
   <v>      -0.00148132       0.00203755       0.00067847 </v>
   <v>      -0.00118802       0.00086500       0.00338756 </v>
   <v>      -0.00237274      -0.00291793       0.00131211 </v>
   <v>       0.00015765      -0.00081593       0.00634358 </v>
   <v>       0.00238974       0.00468488      -0.00004529 </v>
   <v>       0.00066675      -0.00209940       0.00267115 </v>
   <v>       0.00014122      -0.00250956       0.00254611 </v>
   <v>      -0.00287146      -0.00197090       0.00167656 </v>
   <v>       0.00061076      -0.00418372       0.00212750 </v>
   <v>       0.00587527      -0.00237231      -0.00557717 </v>
   <v>      -0.00059280       0.00365814       0.00070970 </v>
   <v>       0.00179983       0.00248926       0.00060570 </v>
   <v>       0.00018025      -0.00028457       0.00432163 </v>
   <v>      -0.00242303      -0.00145643      -0.00125848 </v>
   <v>       0.00497520       0.00304465       0.00538016 </v>
   <v>      -0.00258500      -0.00320553       0.00011558 </v>
   <v>      -0.00749279       0.00145435      -0.00194650 </v>
   <v>      -0.00158397      -0.00178573       0.00087897 </v>
   <v>       0.00142157      -0.00122989      -0.00093070 </v>
   <v>       0.00101345       0.00236449      -0.00244679 </v>
   <v>      -0.00616513       0.00260745      -0.00356453 </v>
   <v>       0.00127672      -0.00131561      -0.00416984 </v>
   <v>      -0.00385937      -0.00155072       0.00265076 </v>
   <v>       0.00009911      -0.00174461       0.00055037 </v>
   <v>       0.00050558       0.00032216      -0.00079597 </v>
   <v>       0.00122777       0.00127532      -0.00158139 </v>
   <v>       0.00078826       0.00035110      -0.00088600 </v>
   <v>       0.00320929      -0.00048230      -0.00201339 </v>
   <v>      -0.00265965       0.00048497      -0.00133578 </v>
   <v>      -0.00062014      -0.00242112      -0.00189215 </v>
   <v>      -0.00285182      -0.00036836      -0.00104325 </v>
   <v>       0.00117006       0.00134645      -0.00045121 </v>
   <v>      -0.00048034       0.00015198      -0.00091894 </v>
   <v>       0.00060633       0.00168916       0.00051461 </v>
   <v>      -0.00325147      -0.00022186      -0.00219968 </v>
   <v>       0.00133620      -0.00043169      -0.00228460 </v>
   <v>      -0.00395149       0.00131579      -0.00196271 </v>
   <v>       0.00106734      -0.00369204       0.00019449 </v>
   <v>       0.00235015      -0.00011571      -0.00218675 </v>
   <v>      -0.00017369      -0.00237668       0.00113866 </v>
   <v>      -0.00182029      -0.00197470       0.00140532 </v>
   <v>       0.00020475      -0.00063516      -0.00004140 </v>
   <v>      -0.00048708      -0.00061156       0.00040961 </v>
   <v>       0.00313680       0.00108856      -0.00005049 </v>
   <v>       0.00038588      -0.00163050       0.00050673 </v>
   <v>       0.00015670      -0.00212224       0.00128473 </v>
   <v>       0.00108504       0.00075531       0.00112638 </v>
   <v>      -0.00165240       0.00134237      -0.00017977 </v>
   <v>      -0.00071114       0.00106078      -0.00078567 </v>
   <v>       0.00276835       0.00181182       0.00098660 </v>
   <v>       0.00056226       0.00087788       0.00184451 </v>
   <v>       0.00207094      -0.00103482      -0.00306077 </v>
   <v>       0.00086107       0.00115896      -0.00228528 </v>
   <v>      -0.00303924      -0.00196164      -0.00144866 </v>
   <v>      -0.00416851       0.00080818      -0.00107919 </v>
   <v>      -0.00076204       0.00189115       0.00044437 </v>
   <v>       0.00183138       0.00324258       0.00006752 </v>
   <v>       0.00447703       0.00136140       0.00166980 </v>
   <v>       0.00112254       0.00053279       0.00147379 </v>
   <v>      -0.00294546       0.00170816      -0.00020930 </v>
   <v>       0.00087681      -0.00086673       0.00036375 </v>
   <v>      -0.00048485       0.00118460       0.00132989 </v>
   <v>      -0.00354619       0.00356879       0.00115382 </v>
   <v>       0.00155244      -0.00104828      -0.00022373 </v>
   <v>       0.00220911       0.00125893       0.00193286 </v>
  </varray>
  <varray name="stress" >
   <v>       0.01312510      -0.00106938       0.00130332 </v>
   <v>      -0.00106938       0.01392317      -0.00285710 </v>
   <v>       0.00130332      -0.00285710      -0.14814300 </v>
  </varray>
  <energy>
   <i name="e_fr_energy">   -817.09910354 </i>
   <i name="e_wo_entrp">   -817.09910354 </i>
   <i name="e_0_energy">     -0.00000000 </i>
  </energy>
  <time name="totalsc"> 4764.06 4818.91</time>
  <eigenvalues>
   <array>
    <dimension dim="1">band</dimension>
    <dimension dim="2">kpoint</dimension>
    <dimension dim="3">spin</dimension>
    <field>eigene</field>
    <field>occ</field>
    <set>
     <set comment="spin 1">
      <set comment="kpoint 1">
       <r>  -25.7417    1.0000 </r>
       <r>  -25.7414    1.0000 </r>
       <r>  -25.7402    1.0000 </r>
       <r>  -24.5501    1.0000 </r>
       <r>  -24.5490    1.0000 </r>
       <r>  -24.5484    1.0000 </r>
       <r>  -22.6967    1.0000 </r>
       <r>  -22.6960    1.0000 </r>
       <r>  -22.6948    1.0000 </r>
       <r>  -21.9728    1.0000 </r>
       <r>  -21.7401    1.0000 </r>
       <r>  -21.6056    1.0000 </r>
       <r>  -21.6048    1.0000 </r>
       <r>  -21.3748    1.0000 </r>
       <r>  -21.3740    1.0000 </r>
       <r>  -21.2107    1.0000 </r>
       <r>  -20.9725    1.0000 </r>
       <r>  -20.2160    1.0000 </r>
       <r>  -20.2149    1.0000 </r>
       <r>  -19.8889    1.0000 </r>
       <r>  -19.7027    1.0000 </r>
       <r>  -19.7023    1.0000 </r>
       <r>  -19.1094    1.0000 </r>
       <r>  -19.1090    1.0000 </r>
       <r>  -18.8958    1.0000 </r>
       <r>  -18.6626    1.0000 </r>
       <r>  -18.6620    1.0000 </r>
       <r>  -18.6321    1.0000 </r>
       <r>  -18.4363    1.0000 </r>
       <r>  -18.4355    1.0000 </r>
       <r>  -18.3928    1.0000 </r>
       <r>  -18.2838    1.0000 </r>
       <r>  -18.1865    1.0000 </r>
       <r>  -18.1853    1.0000 </r>
       <r>  -18.0911    1.0000 </r>
       <r>  -18.0909    1.0000 </r>
       <r>  -17.9206    1.0000 </r>
       <r>  -17.4913    1.0000 </r>
       <r>  -17.4905    1.0000 </r>
       <r>  -16.5777    1.0000 </r>
       <r>  -16.5609    1.0000 </r>
       <r>  -16.5596    1.0000 </r>
       <r>  -16.3493    1.0000 </r>
       <r>  -16.3469    1.0000 </r>
       <r>  -16.3337    1.0000 </r>
       <r>  -15.7547    1.0000 </r>
       <r>  -15.7546    1.0000 </r>
       <r>  -15.3929    1.0000 </r>
       <r>  -15.3915    1.0000 </r>
       <r>  -15.2026    1.0000 </r>
       <r>  -15.0939    1.0000 </r>
       <r>  -14.9660    1.0000 </r>
       <r>  -14.8626    1.0000 </r>
       <r>  -14.8623    1.0000 </r>
       <r>  -14.6952    1.0000 </r>
       <r>  -14.6525    1.0000 </r>
       <r>  -14.6509    1.0000 </r>
       <r>  -14.0722    1.0000 </r>
       <r>  -14.0717    1.0000 </r>
       <r>  -13.9087    1.0000 </r>
       <r>  -13.9079    1.0000 </r>
       <r>  -13.6395    1.0000 </r>
       <r>  -13.5809    1.0000 </r>
       <r>  -13.5806    1.0000 </r>
       <r>  -13.5186    1.0000 </r>
       <r>  -13.1850    1.0000 </r>
       <r>  -13.0390    1.0000 </r>
       <r>  -13.0379    1.0000 </r>
       <r>  -12.9935    1.0000 </r>
       <r>  -12.9281    1.0000 </r>
       <r>  -12.9278    1.0000 </r>
       <r>  -12.4255    1.0000 </r>
       <r>  -12.3755    1.0000 </r>
       <r>  -12.3748    1.0000 </r>
       <r>  -12.1481    1.0000 </r>
       <r>  -12.0685    1.0000 </r>
       <r>  -11.9267    1.0000 </r>
       <r>  -11.8266    1.0000 </r>
       <r>  -11.7656    1.0000 </r>
       <r>  -11.6074    1.0000 </r>
       <r>  -11.6065    1.0000 </r>
       <r>  -11.3960    1.0000 </r>
       <r>  -11.3938    1.0000 </r>
       <r>  -11.2660    1.0000 </r>
       <r>  -11.2641    1.0000 </r>
       <r>  -11.1526    1.0000 </r>
       <r>  -11.0720    1.0000 </r>
       <r>  -11.0713    1.0000 </r>
       <r>  -11.0439    1.0000 </r>
       <r>  -11.0435    1.0000 </r>
       <r>  -10.8842    1.0000 </r>
       <r>  -10.8469    1.0000 </r>
       <r>  -10.8459    1.0000 </r>
       <r>  -10.6758    1.0000 </r>
       <r>  -10.6757    1.0000 </r>
       <r>  -10.6586    1.0000 </r>
       <r>  -10.5213    1.0000 </r>
       <r>  -10.5204    1.0000 </r>
       <r>  -10.4086    1.0000 </r>
       <r>  -10.3435    1.0000 </r>
       <r>  -10.3434    1.0000 </r>
       <r>  -10.3146    1.0000 </r>
       <r>  -10.2993    1.0000 </r>
       <r>  -10.1882    1.0000 </r>
       <r>  -10.1700    1.0000 </r>
       <r>  -10.1689    1.0000 </r>
       <r>  -10.1324    1.0000 </r>
       <r>  -10.0871    1.0000 </r>
       <r>  -10.0075    1.0000 </r>
       <r>  -10.0059    1.0000 </r>
       <r>   -9.9885    1.0000 </r>
       <r>   -9.9481    1.0000 </r>
       <r>   -9.9456    1.0000 </r>
       <r>   -9.8377    1.0000 </r>
       <r>   -9.8131    1.0000 </r>
       <r>   -9.7622    1.0000 </r>
       <r>   -9.7616    1.0000 </r>
       <r>   -9.7364    1.0000 </r>
       <r>   -9.5512    1.0000 </r>
       <r>   -9.5507    1.0000 </r>
       <r>   -9.3746    1.0000 </r>
       <r>   -9.1689    1.0000 </r>
       <r>   -9.1681    1.0000 </r>
       <r>   -9.1292    1.0000 </r>
       <r>   -9.1289    1.0000 </r>
       <r>   -9.0033    1.0000 </r>
       <r>   -9.0028    1.0000 </r>
       <r>   -8.9250    1.0000 </r>
       <r>   -8.8251    1.0000 </r>
       <r>   -8.8245    1.0000 </r>
       <r>   -8.7796    1.0000 </r>
       <r>   -8.6665    1.0000 </r>
       <r>   -8.6650    1.0000 </r>
       <r>   -8.6643    1.0000 </r>
       <r>   -8.5699    1.0000 </r>
       <r>   -8.5187    1.0000 </r>
       <r>   -8.5180    1.0000 </r>
       <r>   -8.4616    1.0000 </r>
       <r>   -8.3583    1.0000 </r>
       <r>   -8.3523    1.0000 </r>
       <r>   -8.3518    1.0000 </r>
       <r>   -8.1517    1.0000 </r>
       <r>   -8.0448    1.0000 </r>
       <r>   -8.0440    1.0000 </r>
       <r>   -7.9043    1.0000 </r>
       <r>   -7.9041    1.0000 </r>
       <r>   -7.9000    1.0000 </r>
       <r>   -7.6929    1.0000 </r>
       <r>   -7.6927    1.0000 </r>
       <r>   -7.4761    1.0000 </r>
       <r>   -7.4756    1.0000 </r>
       <r>   -7.2987    1.0000 </r>
       <r>   -7.2981    1.0000 </r>
       <r>   -7.0610    1.0000 </r>
       <r>   -6.9074    1.0000 </r>
       <r>   -6.9065    1.0000 </r>
       <r>   -6.7314    1.0000 </r>
       <r>   -6.7260    1.0000 </r>
       <r>   -6.7254    1.0000 </r>
       <r>   -6.5125    1.0000 </r>
       <r>   -6.5121    1.0000 </r>
       <r>   -6.5013    1.0000 </r>
       <r>   -6.2819    1.0000 </r>
       <r>   -6.2811    1.0000 </r>
       <r>   -6.2691    1.0000 </r>
       <r>   -6.2288    1.0000 </r>
       <r>   -6.0036    1.0000 </r>
       <r>   -5.7109    1.0000 </r>
       <r>   -5.7102    1.0000 </r>
       <r>   -5.6506    1.0000 </r>
       <r>   -5.5248    1.0000 </r>
       <r>   -5.5244    1.0000 </r>
       <r>   -5.4073    1.0000 </r>
       <r>   -5.4070    1.0000 </r>
       <r>   -5.3301    1.0000 </r>
       <r>   -5.2783    1.0000 </r>
       <r>   -5.2780    1.0000 </r>
       <r>   -2.8987    0.0000 </r>
       <r>   -2.8978    0.0000 </r>
       <r>   -2.8960    0.0000 </r>
       <r>   -2.3697    0.0000 </r>
       <r>   -2.3680    0.0000 </r>
       <r>   -2.1468    0.0000 </r>
       <r>   -2.1441    0.0000 </r>
       <r>   -2.1394    0.0000 </r>
       <r>   -2.1079    0.0000 </r>
       <r>   -2.1025    0.0000 </r>
       <r>   -1.7009    0.0000 </r>
       <r>   -1.4168    0.0000 </r>
       <r>   -1.3956    0.0000 </r>
       <r>   -1.3699    0.0000 </r>
       <r>   -1.3688    0.0000 </r>
       <r>   -1.1307    0.0000 </r>
       <r>   -1.1046    0.0000 </r>
       <r>   -1.1036    0.0000 </r>
       <r>   -0.5960    0.0000 </r>
       <r>   -0.4810    0.0000 </r>
       <r>   -0.4798    0.0000 </r>
       <r>   -0.4500    0.0000 </r>
       <r>   -0.3649    0.0000 </r>
       <r>   -0.3628    0.0000 </r>
       <r>   -0.3549    0.0000 </r>
       <r>   -0.1914    0.0000 </r>
       <r>   -0.1887    0.0000 </r>
       <r>   -0.1566    0.0000 </r>
       <r>   -0.1546    0.0000 </r>
       <r>    0.0655    0.0000 </r>
       <r>    0.0658    0.0000 </r>
       <r>    0.1117    0.0000 </r>
       <r>    0.1127    0.0000 </r>
       <r>    0.1166    0.0000 </r>
       <r>    0.1557    0.0000 </r>
       <r>    0.2743    0.0000 </r>
       <r>    0.2842    0.0000 </r>
       <r>    0.2863    0.0000 </r>
       <r>    0.2981    0.0000 </r>
       <r>    0.4091    0.0000 </r>
       <r>    0.4747    0.0000 </r>
       <r>    0.4777    0.0000 </r>
       <r>    0.4852    0.0000 </r>
       <r>    0.5106    0.0000 </r>
       <r>    0.5108    0.0000 </r>
       <r>    0.5679    0.0000 </r>
       <r>    0.6891    0.0000 </r>
       <r>    0.6903    0.0000 </r>
       <r>    0.7212    0.0000 </r>
       <r>    0.7520    0.0000 </r>
       <r>    0.7540    0.0000 </r>
       <r>    0.7584    0.0000 </r>
       <r>    0.8530    0.0000 </r>
       <r>    0.8552    0.0000 </r>
       <r>    0.8614    0.0000 </r>
       <r>    0.8619    0.0000 </r>
       <r>    0.8776    0.0000 </r>
       <r>    0.9142    0.0000 </r>
       <r>    0.9180    0.0000 </r>
       <r>    0.9315    0.0000 </r>
       <r>    0.9430    0.0000 </r>
       <r>    0.9438    0.0000 </r>
       <r>    1.0513    0.0000 </r>
      </set>
      <set comment="kpoint 2">
       <r>  -25.7417    1.0000 </r>
       <r>  -25.7414    1.0000 </r>
       <r>  -25.7402    1.0000 </r>
       <r>  -24.5501    1.0000 </r>
       <r>  -24.5490    1.0000 </r>
       <r>  -24.5484    1.0000 </r>
       <r>  -22.6966    1.0000 </r>
       <r>  -22.6960    1.0000 </r>
       <r>  -22.6948    1.0000 </r>
       <r>  -21.9728    1.0000 </r>
       <r>  -21.7401    1.0000 </r>
       <r>  -21.6056    1.0000 </r>
       <r>  -21.6048    1.0000 </r>
       <r>  -21.3748    1.0000 </r>
       <r>  -21.3740    1.0000 </r>
       <r>  -21.2106    1.0000 </r>
       <r>  -20.9725    1.0000 </r>
       <r>  -20.2159    1.0000 </r>
       <r>  -20.2147    1.0000 </r>
       <r>  -19.8902    1.0000 </r>
       <r>  -19.7024    1.0000 </r>
       <r>  -19.7010    1.0000 </r>
       <r>  -19.1114    1.0000 </r>
       <r>  -19.1090    1.0000 </r>
       <r>  -18.8939    1.0000 </r>
       <r>  -18.6626    1.0000 </r>
       <r>  -18.6620    1.0000 </r>
       <r>  -18.6321    1.0000 </r>
       <r>  -18.4363    1.0000 </r>
       <r>  -18.4356    1.0000 </r>
       <r>  -18.3928    1.0000 </r>
       <r>  -18.2845    1.0000 </r>
       <r>  -18.1865    1.0000 </r>
       <r>  -18.1853    1.0000 </r>
       <r>  -18.0919    1.0000 </r>
       <r>  -18.0909    1.0000 </r>
       <r>  -17.9191    1.0000 </r>
       <r>  -17.4915    1.0000 </r>
       <r>  -17.4907    1.0000 </r>
       <r>  -16.5777    1.0000 </r>
       <r>  -16.5609    1.0000 </r>
       <r>  -16.5596    1.0000 </r>
       <r>  -16.3493    1.0000 </r>
       <r>  -16.3469    1.0000 </r>
       <r>  -16.3337    1.0000 </r>
       <r>  -15.7547    1.0000 </r>
       <r>  -15.7542    1.0000 </r>
       <r>  -15.3937    1.0000 </r>
       <r>  -15.3915    1.0000 </r>
       <r>  -15.2026    1.0000 </r>
       <r>  -15.0931    1.0000 </r>
       <r>  -14.9660    1.0000 </r>
       <r>  -14.8627    1.0000 </r>
       <r>  -14.8623    1.0000 </r>
       <r>  -14.6955    1.0000 </r>
       <r>  -14.6525    1.0000 </r>
       <r>  -14.6508    1.0000 </r>
       <r>  -14.0722    1.0000 </r>
       <r>  -14.0717    1.0000 </r>
       <r>  -13.9087    1.0000 </r>
       <r>  -13.9079    1.0000 </r>
       <r>  -13.6394    1.0000 </r>
       <r>  -13.5810    1.0000 </r>
       <r>  -13.5806    1.0000 </r>
       <r>  -13.5185    1.0000 </r>
       <r>  -13.1851    1.0000 </r>
       <r>  -13.0390    1.0000 </r>
       <r>  -13.0379    1.0000 </r>
       <r>  -12.9938    1.0000 </r>
       <r>  -12.9281    1.0000 </r>
       <r>  -12.9276    1.0000 </r>
       <r>  -12.4258    1.0000 </r>
       <r>  -12.3750    1.0000 </r>
       <r>  -12.3748    1.0000 </r>
       <r>  -12.1481    1.0000 </r>
       <r>  -12.0684    1.0000 </r>
       <r>  -11.9267    1.0000 </r>
       <r>  -11.8266    1.0000 </r>
       <r>  -11.7666    1.0000 </r>
       <r>  -11.6074    1.0000 </r>
       <r>  -11.6059    1.0000 </r>
       <r>  -11.3957    1.0000 </r>
       <r>  -11.3934    1.0000 </r>
       <r>  -11.2661    1.0000 </r>
       <r>  -11.2641    1.0000 </r>
       <r>  -11.1526    1.0000 </r>
       <r>  -11.0729    1.0000 </r>
       <r>  -11.0720    1.0000 </r>
       <r>  -11.0434    1.0000 </r>
       <r>  -11.0428    1.0000 </r>
       <r>  -10.8842    1.0000 </r>
       <r>  -10.8470    1.0000 </r>
       <r>  -10.8455    1.0000 </r>
       <r>  -10.6760    1.0000 </r>
       <r>  -10.6757    1.0000 </r>
       <r>  -10.6593    1.0000 </r>
       <r>  -10.5208    1.0000 </r>
       <r>  -10.5203    1.0000 </r>
       <r>  -10.4086    1.0000 </r>
       <r>  -10.3441    1.0000 </r>
       <r>  -10.3435    1.0000 </r>
       <r>  -10.3145    1.0000 </r>
       <r>  -10.2987    1.0000 </r>
       <r>  -10.1898    1.0000 </r>
       <r>  -10.1690    1.0000 </r>
       <r>  -10.1683    1.0000 </r>
       <r>  -10.1323    1.0000 </r>
       <r>  -10.0871    1.0000 </r>
       <r>  -10.0076    1.0000 </r>
       <r>  -10.0059    1.0000 </r>
       <r>   -9.9885    1.0000 </r>
       <r>   -9.9480    1.0000 </r>
       <r>   -9.9455    1.0000 </r>
       <r>   -9.8376    1.0000 </r>
       <r>   -9.8133    1.0000 </r>
       <r>   -9.7622    1.0000 </r>
       <r>   -9.7617    1.0000 </r>
       <r>   -9.7364    1.0000 </r>
       <r>   -9.5513    1.0000 </r>
       <r>   -9.5508    1.0000 </r>
       <r>   -9.3744    1.0000 </r>
       <r>   -9.1689    1.0000 </r>
       <r>   -9.1681    1.0000 </r>
       <r>   -9.1293    1.0000 </r>
       <r>   -9.1289    1.0000 </r>
       <r>   -9.0036    1.0000 </r>
       <r>   -9.0029    1.0000 </r>
       <r>   -8.9250    1.0000 </r>
       <r>   -8.8251    1.0000 </r>
       <r>   -8.8246    1.0000 </r>
       <r>   -8.7789    1.0000 </r>
       <r>   -8.6665    1.0000 </r>
       <r>   -8.6650    1.0000 </r>
       <r>   -8.6643    1.0000 </r>
       <r>   -8.5699    1.0000 </r>
       <r>   -8.5189    1.0000 </r>
       <r>   -8.5181    1.0000 </r>
       <r>   -8.4619    1.0000 </r>
       <r>   -8.3592    1.0000 </r>
       <r>   -8.3519    1.0000 </r>
       <r>   -8.3510    1.0000 </r>
       <r>   -8.1520    1.0000 </r>
       <r>   -8.0447    1.0000 </r>
       <r>   -8.0439    1.0000 </r>
       <r>   -7.9054    1.0000 </r>
       <r>   -7.9042    1.0000 </r>
       <r>   -7.8990    1.0000 </r>
       <r>   -7.6929    1.0000 </r>
       <r>   -7.6927    1.0000 </r>
       <r>   -7.4761    1.0000 </r>
       <r>   -7.4756    1.0000 </r>
       <r>   -7.2988    1.0000 </r>
       <r>   -7.2982    1.0000 </r>
       <r>   -7.0607    1.0000 </r>
       <r>   -6.9075    1.0000 </r>
       <r>   -6.9066    1.0000 </r>
       <r>   -6.7314    1.0000 </r>
       <r>   -6.7260    1.0000 </r>
       <r>   -6.7254    1.0000 </r>
[...]
       <r>   -21.3833     6.6887    26.6571 </r>
       <r>   -21.2851     0.0000    30.0000 </r>
       <r>   -21.1868    20.0163    31.9664 </r>
       <r>   -21.0886     0.0000    32.0000 </r>
       <r>   -20.9904     1.4856    32.1459 </r>
       <r>   -20.8921     0.0000    34.0000 </r>
       <r>   -20.7939     0.0000    34.0000 </r>
       <r>   -20.6956     0.0000    34.0000 </r>
       <r>   -20.5974     0.0000    34.0000 </r>
       <r>   -20.4992     0.0000    34.0000 </r>
       <r>   -20.4009     0.0000    34.0000 </r>
       <r>   -20.3027     0.0000    34.0000 </r>
       <r>   -20.2044    23.2263    36.2818 </r>
       <r>   -20.1062    13.2318    38.0000 </r>
       <r>   -20.0080    11.1555    39.0959 </r>
       <r>   -19.9097     5.1347    39.7046 </r>
       <r>   -19.8115     1.3540    40.0000 </r>
       <r>   -19.7132     1.3410    40.1317 </r>
       <r>   -19.6150     4.4140    42.6005 </r>
       <r>   -19.5168     3.7912    43.0392 </r>
       <r>   -19.4185     6.7849    44.0001 </r>
       <r>   -19.3203    10.0047    44.9830 </r>
       <r>   -19.2220     3.1289    45.3741 </r>
       <r>   -19.1238     4.1108    45.8372 </r>
       <r>   -19.0256     0.0000    48.0000 </r>
       <r>   -18.9273     0.0000    48.0000 </r>
       <r>   -18.8291     4.6146    48.4533 </r>
       <r>   -18.7308     3.7802    48.8715 </r>
       <r>   -18.6326    50.9443    54.0049 </r>
       <r>   -18.5343     5.3261    56.0233 </r>
       <r>   -18.4361    24.9694    58.7198 </r>
       <r>   -18.3379    34.5976    63.3989 </r>
       <r>   -18.2396     5.0885    64.0000 </r>
       <r>   -18.1414    47.8269    68.6986 </r>
       <r>   -18.0431    26.1240    72.0000 </r>
       <r>   -17.9449     0.0003    72.0000 </r>
       <r>   -17.8467     5.6473    72.5548 </r>
       <r>   -17.7484     5.9865    73.2215 </r>
       <r>   -17.6502     3.3908    74.0000 </r>
       <r>   -17.5519    11.3874    75.1187 </r>
       <r>   -17.4537    27.8208    78.0000 </r>
       <r>   -17.3555     0.0000    78.0000 </r>
       <r>   -17.2572     0.0000    78.0000 </r>
       <r>   -17.1590     0.0000    78.0000 </r>
       <r>   -17.0607     0.0000    78.0000 </r>
       <r>   -16.9625     0.0000    78.0000 </r>
       <r>   -16.8643     0.0000    78.0000 </r>
       <r>   -16.7660     0.0000    78.0000 </r>
       <r>   -16.6678     0.0000    78.0000 </r>
       <r>   -16.5695    20.7835    80.0418 </r>
       <r>   -16.4713     0.0000    84.0000 </r>
       <r>   -16.3730     0.0143    84.0014 </r>
       <r>   -16.2748    61.0601    90.0000 </r>
       <r>   -16.1766     0.0000    90.0000 </r>
       <r>   -16.0783     0.0000    90.0000 </r>
       <r>   -15.9801     0.0000    90.0000 </r>
       <r>   -15.8818     0.0000    90.0000 </r>
       <r>   -15.7836     0.0003    90.0000 </r>
       <r>   -15.6854    33.1539    93.2571 </r>
       <r>   -15.5871     0.0000    94.0000 </r>
       <r>   -15.4889    11.6093    95.1405 </r>
       <r>   -15.3906    19.4225    97.1748 </r>
       <r>   -15.2924     0.0000    98.0000 </r>
       <r>   -15.1942    17.9513    99.7635 </r>
       <r>   -15.0959     0.7046   100.0692 </r>
       <r>   -14.9977     5.9925   100.9221 </r>
       <r>   -14.8994    37.1951   104.7880 </r>
       <r>   -14.8012    28.1594   108.0000 </r>
       <r>   -14.7030    16.4639   109.6174 </r>
       <r>   -14.6047    40.7162   114.0000 </r>
       <r>   -14.5065     0.0000   114.0000 </r>
       <r>   -14.4082     0.0000   114.0000 </r>
       <r>   -14.3100     0.0000   114.0000 </r>
       <r>   -14.2117     0.0000   114.0000 </r>
       <r>   -14.1135     0.0000   114.0000 </r>
       <r>   -14.0153    40.7163   118.0000 </r>
       <r>   -13.9170     4.4630   118.4385 </r>
       <r>   -13.8188     0.0000   122.0000 </r>
       <r>   -13.7205     0.0000   122.0000 </r>
       <r>   -13.6223    17.7060   123.7394 </r>
       <r>   -13.5241    38.5585   128.0898 </r>
       <r>   -13.4258    10.8379   130.0000 </r>
       <r>   -13.3276     0.0000   130.0000 </r>
       <r>   -13.2293     0.0000   130.0000 </r>
       <r>   -13.1311    20.3581   132.0000 </r>
       <r>   -13.0329    28.0654   134.7572 </r>
       <r>   -12.9346    12.1207   138.3910 </r>
       <r>   -12.8364    15.2653   142.0000 </r>
       <r>   -12.7381     0.0000   142.0000 </r>
       <r>   -12.6399     0.0000   142.0000 </r>
       <r>   -12.5417     0.0000   142.0000 </r>
       <r>   -12.4434    10.6768   143.0489 </r>
       <r>   -12.3452    26.7220   146.6252 </r>
       <r>   -12.2469    11.1937   148.0000 </r>
       <r>   -12.1487     8.3709   148.8224 </r>
       <r>   -12.0504    20.0839   151.9731 </r>
       <r>   -11.9522     0.1618   152.0159 </r>
       <r>   -11.8540    20.7809   155.0757 </r>
       <r>   -11.7557    16.8420   157.9889 </r>
       <r>   -11.6575     0.0000   158.0000 </r>
       <r>   -11.5592    30.4381   160.9903 </r>
       <r>   -11.4610     4.0666   162.0000 </r>
       <r>   -11.3628    13.8835   163.3639 </r>
       <r>   -11.2645    56.1767   169.3193 </r>
       <r>   -11.1663     8.4325   170.8284 </r>
       <r>   -11.0680    28.0293   175.8871 </r>
       <r>   -10.9698    33.0141   179.2434 </r>
       <r>   -10.8716    27.6628   182.4181 </r>
       <r>   -10.7733    21.4964   185.6124 </r>
       <r>   -10.6751    43.1287   190.2381 </r>
       <r>   -10.5768     0.0000   192.0000 </r>
       <r>   -10.4786    27.3821   194.6900 </r>
       <r>   -10.3804    44.2053   199.2762 </r>
       <r>   -10.2821    50.4872   204.5267 </r>
       <r>   -10.1839    26.3659   208.1241 </r>
       <r>   -10.0856    47.7021   214.8198 </r>
       <r>    -9.9874    56.0170   221.1370 </r>
       <r>    -9.8891    40.7163   226.0000 </r>
       <r>    -9.7909    42.9212   230.2166 </r>
       <r>    -9.6927    47.8371   236.0000 </r>
       <r>    -9.5944     0.0029   236.0003 </r>
       <r>    -9.4962    40.7134   240.0000 </r>
       <r>    -9.3979     0.0011   240.0001 </r>
       <r>    -9.2997    20.3570   242.0000 </r>
       <r>    -9.2015     0.0000   242.0000 </r>
       <r>    -9.1032    81.4245   249.9992 </r>
       <r>    -9.0050    33.4679   253.2879 </r>
       <r>    -8.9067    19.5622   255.9218 </r>
       <r>    -8.8085    31.6107   259.1055 </r>
       <r>    -8.7103    10.1322   260.9954 </r>
       <r>    -8.6120    61.0744   268.0000 </r>
       <r>    -8.5138    59.1652   273.8124 </r>
       <r>    -8.4155    20.3581   276.0000 </r>
       <r>    -8.3173    48.5646   280.7710 </r>
       <r>    -8.2191     4.0632   282.0001 </r>
       <r>    -8.1208    20.3572   284.0000 </r>
       <r>    -8.0226    26.6250   286.6157 </r>
       <r>    -7.9243    26.0309   289.4908 </r>
       <r>    -7.8261    42.0250   294.0000 </r>
       <r>    -7.7279     0.0000   294.0000 </r>
       <r>    -7.6296    40.7162   298.0000 </r>
       <r>    -7.5314     0.0000   298.0000 </r>
       <r>    -7.4331    40.7163   302.0000 </r>
       <r>    -7.3349     0.0291   302.0029 </r>
       <r>    -7.2366    40.6872   306.0000 </r>
       <r>    -7.1384     0.0000   306.0000 </r>
       <r>    -7.0402     6.1134   306.6006 </r>
       <r>    -6.9419    22.8736   309.1139 </r>
       <r>    -6.8437    26.1250   312.0000 </r>
       <r>    -6.7454     0.4714   312.0463 </r>
       <r>    -6.6472    29.7744   318.0000 </r>
       <r>    -6.5490     0.0000   318.0000 </r>
       <r>    -6.4507    61.0744   324.0000 </r>
       <r>    -6.3525     0.0000   324.0000 </r>
       <r>    -6.2542    60.7145   329.9646 </r>
       <r>    -6.1560    20.3578   332.0000 </r>
       <r>    -6.0578     0.0065   332.0006 </r>
       <r>    -5.9595    20.3516   334.0000 </r>
       <r>    -5.8613     0.0000   334.0000 </r>
       <r>    -5.7630     0.0000   334.0000 </r>
       <r>    -5.6648    41.4104   338.0682 </r>
       <r>    -5.5666     0.0000   340.0000 </r>
       <r>    -5.4683    40.7163   344.0000 </r>
       <r>    -5.3701    40.7163   348.0000 </r>
       <r>    -5.2718    53.6296   353.2686 </r>
       <r>    -5.1736     0.0000   354.0000 </r>
       <r>    -5.0753     0.0000   354.0000 </r>
       <r>    -4.9771     0.0000   354.0000 </r>
       <r>    -4.8789     0.0000   354.0000 </r>
       <r>    -4.7806     0.0000   354.0000 </r>
       <r>    -4.6824     0.0000   354.0000 </r>
       <r>    -4.5841     0.0000   354.0000 </r>
       <r>    -4.4859     0.0000   354.0000 </r>
       <r>    -4.3877     0.0000   354.0000 </r>
       <r>    -4.2894     0.0000   354.0000 </r>
       <r>    -4.1912     0.0000   354.0000 </r>
       <r>    -4.0929     0.0000   354.0000 </r>
       <r>    -3.9947     0.0000   354.0000 </r>
       <r>    -3.8965     0.0000   354.0000 </r>
       <r>    -3.7982     0.0000   354.0000 </r>
       <r>    -3.7000     0.0000   354.0000 </r>
       <r>    -3.6017     0.0000   354.0000 </r>
       <r>    -3.5035     0.0000   354.0000 </r>
       <r>    -3.4053     0.0000   354.0000 </r>
       <r>    -3.3070     0.0000   354.0000 </r>
       <r>    -3.2088     0.0000   354.0000 </r>
       <r>    -3.1105     0.0000   354.0000 </r>
       <r>    -3.0123     0.0000   354.0000 </r>
       <r>    -2.9140     0.6359   354.0625 </r>
       <r>    -2.8158     0.0000   360.0000 </r>
       <r>    -2.7176     0.0000   360.0000 </r>
       <r>    -2.6193     0.0000   360.0000 </r>
       <r>    -2.5211     0.0000   360.0000 </r>
       <r>    -2.4228     0.0000   360.0000 </r>
       <r>    -2.3246    40.7163   364.0000 </r>
       <r>    -2.2264     0.0000   364.0000 </r>
       <r>    -2.1281    58.9786   369.7941 </r>
       <r>    -2.0299    21.3262   374.0000 </r>
       <r>    -1.9316     0.0000   374.0000 </r>
       <r>    -1.8334     0.0000   374.0000 </r>
       <r>    -1.7352     0.0000   374.0000 </r>
       <r>    -1.6369    20.3581   376.0000 </r>
       <r>    -1.5387     0.0000   376.0000 </r>
       <r>    -1.4404     0.3143   376.0309 </r>
       <r>    -1.3422    67.8436   383.9992 </r>
       <r>    -1.2440     0.0000   384.0000 </r>
       <r>    -1.1457     0.3567   384.0350 </r>
       <r>    -1.0475    40.7163   390.0000 </r>
       <r>    -0.9492     0.0000   390.0000 </r>
       <r>    -0.8510     0.0000   390.0000 </r>
       <r>    -0.7527     0.0000   390.0000 </r>
       <r>    -0.6545     0.0000   390.0000 </r>
       <r>    -0.5563    20.3581   392.0000 </r>
       <r>    -0.4580    48.9502   396.8089 </r>
       <r>    -0.3598    36.1377   401.5502 </r>
       <r>    -0.2615    17.3031   404.0000 </r>
       <r>    -0.1633    41.8258   408.1090 </r>
       <r>    -0.0651    25.4242   412.0000 </r>
       <r>     0.0332    20.6878   414.0324 </r>
       <r>     0.1314    63.9022   421.2455 </r>
       <r>     0.2297    12.8507   424.0000 </r>
       <r>     0.3279    55.3750   429.4401 </r>
       <r>     0.4261    36.9636   433.9984 </r>
       <r>     0.5244    84.5796   442.3098 </r>
       <r>     0.6226    34.0010   445.9404 </r>
       <r>     0.7209    52.5135   453.1262 </r>
       <r>     0.8191    56.4223   460.2103 </r>
       <r>     0.9173    77.8620   470.0497 </r>
       <r>     1.0156    70.1642   479.3944 </r>
       <r>     1.1138     2.7141   480.0000 </r>
       <r>     1.2121     0.0000   480.0000 </r>
       <r>     1.3103     0.0000   480.0000 </r>
       <r>     1.4085     0.0000   480.0000 </r>
       <r>     1.5068     0.0000   480.0000 </r>
       <r>     1.6050     0.0000   480.0000 </r>
       <r>     1.7033     0.0000   480.0000 </r>
       <r>     1.8015     0.0000   480.0000 </r>
       <r>     1.8998     0.0000   480.0000 </r>
       <r>     1.9980     0.0000   480.0000 </r>
       <r>     2.0962     0.0000   480.0000 </r>
       <r>     2.1945     0.0000   480.0000 </r>
       <r>     2.2927     0.0000   480.0000 </r>
       <r>     2.3910     0.0000   480.0000 </r>
      </set>
     </set>
    </array>
   </total>
  </dos>
 </calculation>
 <structure name="finalpos" >
  <crystal>
   <varray name="basis" >
    <v>      29.79312382      -0.00224863       0.00000000 </v>
    <v>     -14.89850917      25.79181516       0.00000000 </v>
    <v>       0.00000000       0.00000000      20.00000000 </v>
   </varray>
   <i name="volume">  15367.70482771 </i>
   <varray name="rec_basis" >
    <v>       0.03356626       0.01938937       0.00000000 </v>
    <v>       0.00000293       0.03877368       0.00000000 </v>
    <v>       0.00000000       0.00000000       0.05000000 </v>
   </varray>
  </crystal>
  <varray name="positions" >
   <v>       0.51151975       0.01241229       0.68971208 </v>
   <v>       0.50908172       0.49520898       0.68984202 </v>
   <v>       0.99489513       0.49496412       0.68981204 </v>
   <v>       0.05760438       0.52800448       0.50822017 </v>
   <v>       0.02723045       0.51281056       0.44978114 </v>
   <v>       0.28342735       0.64084452       0.50197726 </v>
   <v>       0.31159862       0.69524398       0.50193581 </v>
   <v>       0.36598536       0.72337121       0.50197319 </v>
   <v>       0.39219998       0.69520840       0.50198476 </v>
   <v>       0.36591541       0.64080481       0.50205418 </v>
   <v>       0.31152706       0.61456056       0.50199442 </v>
   <v>       0.39490099       0.78116770       0.50253022 </v>
   <v>       0.36900602       0.80983888       0.50295388 </v>
   <v>       0.39588814       0.86382603       0.50436652 </v>
   <v>       0.45012466       0.89159640       0.50552022 </v>
   <v>       0.47660292       0.86383854       0.50466065 </v>
   <v>       0.44947824       0.80984861       0.50318760 </v>
   <v>       0.22564269       0.61198813       0.50252929 </v>
   <v>       0.19703033       0.63794534       0.50319460 </v>
   <v>       0.14305735       0.61110662       0.50457240 </v>
   <v>       0.11525615       0.55685521       0.50540228 </v>
   <v>       0.14295753       0.53032593       0.50432436 </v>
   <v>       0.19692737       0.55740310       0.50292948 </v>
   <v>       0.39480260       0.61191587       0.50269464 </v>
   <v>       0.36889064       0.55732743       0.50323191 </v>
   <v>       0.39575584       0.53022848       0.50469466 </v>
   <v>       0.44999660       0.55673184       0.50571172 </v>
   <v>       0.47648512       0.61098187       0.50477064 </v>
   <v>       0.44938135       0.63784364       0.50331401 </v>
   <v>       0.72681204       0.36265326       0.50216812 </v>
   <v>       0.69867402       0.30824790       0.50202776 </v>
   <v>       0.64428625       0.28009166       0.50208179 </v>
   <v>       0.61802946       0.30821548       0.50207851 </v>
   <v>       0.64427701       0.36261608       0.50215392 </v>
   <v>       0.69867399       0.38890499       0.50221133 </v>
   <v>       0.61539503       0.22231206       0.50320422 </v>
   <v>       0.64126645       0.19360984       0.50410781 </v>
   <v>       0.61435939       0.13966741       0.50708969 </v>
   <v>       0.56015807       0.11195571       0.50956727 </v>
   <v>       0.53371319       0.13969412       0.50670587 </v>
   <v>       0.56081024       0.19363025       0.50376948 </v>
   <v>       0.78458377       0.39152800       0.50334076 </v>
   <v>       0.81322670       0.36559539       0.50435598 </v>
   <v>       0.86714803       0.39243852       0.50741611 </v>
   <v>       0.89493147       0.44665375       0.50986866 </v>
   <v>       0.86725392       0.47316439       0.50690745 </v>
   <v>       0.81332357       0.44612506       0.50386840 </v>
   <v>       0.61534584       0.39144874       0.50327465 </v>
   <v>       0.64118227       0.44604227       0.50377426 </v>
   <v>       0.61426715       0.47305104       0.50676737 </v>
   <v>       0.56006961       0.44650568       0.50969197 </v>
   <v>       0.53364996       0.39228553       0.50722204 </v>
   <v>       0.56076334       0.36547864       0.50424298 </v>
   <v>       0.53122948       0.05422786       0.51250062 </v>
   <v>       0.47887396       0.94927560       0.50826872 </v>
   <v>       0.51655684       0.02409392       0.57178042 </v>
   <v>       0.52684073       0.04413645       0.64420459 </v>
   <v>       0.55509188       0.10146742       0.65962407 </v>
   <v>       0.53114171       0.47530307       0.51265691 </v>
   <v>       0.47877253       0.52785527       0.50842343 </v>
   <v>       0.51616163       0.49045748       0.57194792 </v>
   <v>       0.52578521       0.48012878       0.64442458 </v>
   <v>       0.55499758       0.45203340       0.65988115 </v>
   <v>       0.95266939       0.47547498       0.51274579 </v>
   <v>       0.98291564       0.49045000       0.57194422 </v>
   <v>       0.96305783       0.48007537       0.64445475 </v>
   <v>       0.90575692       0.45218649       0.65999609 </v>
   <v>       0.49342989       0.97955931       0.44975409 </v>
   <v>       0.49356291       0.51237506       0.44990193 </v>
   <v>       0.03502723       0.51660489       0.56817148 </v>
   <v>       0.49056861       0.97196919       0.56816325 </v>
   <v>       0.49025478       0.51665163       0.56831436 </v>
   <v>       0.51919810       0.03118107       0.45186225 </v>
   <v>       0.51938075       0.48659428       0.45200855 </v>
   <v>       0.97562746       0.48701403       0.45203382 </v>
   <v>       0.04526816       0.52183625       0.40028416 </v>
   <v>       0.12227440       0.63260774       0.50579405 </v>
   <v>       0.21675993       0.68013911       0.50308948 </v>
   <v>       0.12209812       0.48802201       0.50535109 </v>
   <v>       0.21658117       0.53488375       0.50258692 </v>
   <v>       0.32670832       0.53481855       0.50293725 </v>
   <v>       0.37427974       0.48792875       0.50582014 </v>
   <v>       0.47188230       0.68003673       0.50308258 </v>
   <v>       0.51877499       0.63246768       0.50590261 </v>
   <v>       0.47194665       0.79013775       0.50299406 </v>
   <v>       0.51889157       0.88465057       0.50585714 </v>
   <v>       0.37442408       0.88464882       0.50535889 </v>
   <v>       0.32682387       0.79013934       0.50261061 </v>
   <v>       0.29057317       0.71630593       0.50213968 </v>
   <v>       0.29044867       0.57245474       0.50222510 </v>
   <v>       0.43429559       0.71624510       0.50223541 </v>
   <v>       0.88796786       0.37096512       0.50821572 </v>
   <v>       0.79355694       0.32341900       0.50288394 </v>
   <v>       0.88815307       0.51548011       0.50729880 </v>
   <v>       0.79370797       0.46866371       0.50199045 </v>
   <v>       0.68333783       0.46860493       0.50190012 </v>
   <v>       0.63566828       0.51536937       0.50715866 </v>
   <v>       0.53828422       0.32330014       0.50278516 </v>
   <v>       0.49134646       0.37077486       0.50797942 </v>
   <v>       0.53832149       0.21329378       0.50198888 </v>
   <v>       0.49140980       0.11882656       0.50714405 </v>
   <v>       0.63575753       0.11876908       0.50780338 </v>
   <v>       0.68343205       0.21324824       0.50257695 </v>
   <v>       0.71971612       0.28719745       0.50229718 </v>
   <v>       0.71971377       0.43101282       0.50276848 </v>
   <v>       0.57593451       0.28714488       0.50242964 </v>
   <v>       0.53516800       0.12069004       0.63799992 </v>
   <v>       0.55725289       0.10595531       0.71407154 </v>
   <v>       0.59432330       0.12111873       0.63822003 </v>
   <v>       0.59408832       0.47199681       0.63807643 </v>
   <v>       0.55745487       0.44996199       0.71432210 </v>
   <v>       0.53543950       0.41273860       0.63861464 </v>
   <v>       0.88589240       0.41288409       0.63876527 </v>
   <v>       0.90126768       0.45014147       0.71444330 </v>
   <v>       0.88671429       0.47223164       0.63820960 </v>
   <v>       0.48391405       0.96144181       0.40031257 </v>
   <v>       0.48418651       0.52111879       0.40045710 </v>
  </varray>
 </structure>
</modeling>
