<?xml version="1.0" encoding="ISO-8859-1"?>
<modeling>
 <generator>
  <i name="program" type="string">vasp </i>
  <i name="version" type="string">5.4.4.18Apr17-6-g9f103f2a35  </i>
  <i name="subversion" type="string">(build Jun 07 2020 16:50:00) complex            parallel </i>
  <i name="platform" type="string">LinuxIFC </i>
  <i name="date" type="string">2023 02 20 </i>
  <i name="time" type="string">00:10:42 </i>
 </generator>
 <incar>
  <i type="string" name="SYSTEM">Simulation for cell shape cell volume r</i>
  <i type="int" name="ISTART">     1</i>
  <i type="string" name="PREC">high</i>
  <i type="string" name="ALGO">48</i>
  <i type="int" name="ICHARG">    11</i>
  <i type="int" name="NELM">   200</i>
  <i type="int" name="IBRION">    -1</i>
  <i name="EDIFF">      0.00001000</i>
  <i name="EDIFFG">     -0.01000000</i>
  <i type="int" name="NSW">     0</i>
  <i type="int" name="ISIF">     2</i>
  <i name="ENCUT">    500.00000000</i>
  <i name="POTIM">      0.30000000</i>
  <i type="string" name="LREAL">A</i>
  <i type="int" name="ISMEAR">     0</i>
  <i name="SIGMA">      0.01000000</i>
  <i type="int" name="NWRITE">     0</i>
  <i type="logical" name="LWAVE"> F  </i>
  <i type="logical" name="LCHARG"> F  </i>
  <v type="int" name="KPOINT_BSE">    -1     0     0     0</v>
  <i type="int" name="NELM">   200</i>
  <i type="string" name="GGA">PE</i>
 </incar>
 <structure name="primitive_cell" >
  <crystal>
   <varray name="basis" >
    <v>      31.95753800      -0.04312807       0.00000000 </v>
    <v>     -16.01592974      27.72499787       0.00000000 </v>
    <v>       0.00000000       0.00000000      20.00000000 </v>
   </varray>
   <i name="volume">  17706.63873631 </i>
   <varray name="rec_basis" >
    <v>       0.03131594       0.01809031       0.00000000 </v>
    <v>       0.00004871       0.03609667       0.00000000 </v>
    <v>       0.00000000       0.00000000       0.05000000 </v>
   </varray>
  </crystal>
  <varray name="positions" >
   <v>       0.40200646      -0.29975614       0.40375328 </v>
   <v>       0.38912037      -0.33299380       0.43225432 </v>
   <v>       0.41511727      -0.35707862       0.43152863 </v>
   <v>       0.34643017      -0.35098850       0.47005536 </v>
   <v>       0.44868172      -0.34154754       0.40296598 </v>
   <v>       0.34475831      -0.27529609       0.47001048 </v>
   <v>       0.32002655      -0.32635843       0.47133319 </v>
   <v>       0.38764943      -0.24818964      -0.49332054 </v>
   <v>       0.40195098      -0.26673587      -0.46355432 </v>
   <v>       0.33044011      -0.39398382      -0.49365259 </v>
   <v>       0.39942335      -0.40027251       0.46739295 </v>
   <v>       0.32694225      -0.25073228       0.43179336 </v>
   <v>       0.41201523      -0.19805765      -0.49525874 </v>
   <v>       0.35632835      -0.41820903      -0.49549581 </v>
   <v>       0.26886070      -0.35273826       0.47026383 </v>
   <v>       0.29374034      -0.27119951       0.40308315 </v>
   <v>       0.26433541      -0.40794698       0.40331338 </v>
   <v>       0.35117145      -0.20063128       0.43093187 </v>
   <v>       0.44566369      -0.17806161      -0.46726601 </v>
   <v>       0.29733951      -0.40848918      -0.46423989 </v>
   <v>       0.39430330      -0.17303352       0.46711053 </v>
   <v>       0.24401299      -0.39517499       0.43214472 </v>
   <v>       0.45972629      -0.40070833       0.36791307 </v>
   <v>       0.42771643      -0.42504676       0.46678688 </v>
   <v>       0.34247390      -0.45193135      -0.46780123 </v>
   <v>       0.45767336      -0.42087186       0.41289021 </v>
   <v>       0.24193502      -0.33688754      -0.49294402 </v>
   <v>       0.33581819      -0.18265203       0.40203186 </v>
   <v>       0.26069863      -0.30397116      -0.46330366 </v>
   <v>       0.41921933      -0.11995419       0.46628673 </v>
   <v>       0.19380727      -0.42104724       0.43150795 </v>
   <v>       0.42743554      -0.45323119      -0.47874966 </v>
   <v>       0.40611312      -0.45694660      -0.43410453 </v>
   <v>       0.39619551      -0.11262651       0.36637120 </v>
   <v>       0.19170043      -0.36265993      -0.49463974 </v>
   <v>       0.48565464      -0.44273263       0.41674650 </v>
   <v>       0.41573334      -0.09435917       0.41170663 </v>
   <v>       0.45007019      -0.10939055      -0.43385748 </v>
   <v>       0.17558954      -0.45442424       0.40267149 </v>
   <v>       0.44677054      -0.09189057      -0.47886720 </v>
   <v>       0.16639893      -0.40545154       0.46783479 </v>
   <v>      -0.47985486      -0.43278248       0.36151112 </v>
   <v>      -0.49635765      -0.43992081       0.30400784 </v>
   <v>       0.45256143      -0.47607831      -0.47670081 </v>
   <v>       0.17183862      -0.34894935      -0.46660610 </v>
   <v>       0.48214757      -0.47114892       0.47243859 </v>
   <v>       0.43745422      -0.04452435       0.41540015 </v>
   <v>       0.46938023      -0.04390401      -0.47684388 </v>
   <v>      -0.43691026      -0.41608054       0.37696209 </v>
   <v>       0.11322007      -0.43355065       0.46713718 </v>
   <v>       0.10565667      -0.46319762       0.36675701 </v>
   <v>       0.46491046      -0.01945855       0.47171562 </v>
   <v>       0.43698942      -0.02915407       0.30234528 </v>
   <v>       0.42838046      -0.02016254       0.35922133 </v>
   <v>       0.08742684      -0.46221759       0.41228594 </v>
   <v>      -0.49229464      -0.49874452       0.47677571 </v>
   <v>      -0.45883832      -0.44165888      -0.39763022 </v>
   <v>       0.10289953      -0.41383034      -0.43254573 </v>
   <v>       0.08524898      -0.43431976      -0.47774852 </v>
   <v>      -0.48599371       0.48342783       0.41927859 </v>
   <v>      -0.47839185      -0.48618186      -0.39842047 </v>
   <v>      -0.47710264       0.49126252      -0.46226311 </v>
   <v>       0.41091272       0.00555840       0.37324155 </v>
   <v>       0.49187271       0.03371784       0.47647962 </v>
   <v>       0.03747179      -0.49019043       0.41591674 </v>
   <v>      -0.48887730       0.05828976       0.41969031 </v>
   <v>      -0.49679355       0.48659078      -0.34993113 </v>
   <v>       0.43066233       0.00790293      -0.40224433 </v>
   <v>       0.03716866      -0.45957459      -0.47574192 </v>
   <v>       0.47519266       0.03363594      -0.39999075 </v>
   <v>      -0.46402015       0.45740952       0.42018650 </v>
   <v>       0.49978654       0.05842751      -0.46247825 </v>
   <v>       0.02100652       0.49540287       0.30284157 </v>
   <v>       0.01291638       0.47696989       0.35917490 </v>
   <v>       0.01248921      -0.48809919       0.47253203 </v>
   <v>      -0.49922988       0.04227333      -0.34965185 </v>
   <v>      -0.45657066       0.46197880      -0.46068802 </v>
   <v>      -0.45902304       0.44476356       0.37166725 </v>
   <v>      -0.44852745       0.44495196       0.47896118 </v>
   <v>      -0.46325205       0.10632581       0.42135226 </v>
   <v>      -0.01198271       0.43346500       0.37216657 </v>
   <v>      -0.44505189       0.45449664      -0.41304781 </v>
   <v>      -0.47129868       0.10832453      -0.45993708 </v>
   <v>      -0.44935239       0.12438401       0.37334196 </v>
   <v>      -0.01644407       0.45081398      -0.39958848 </v>
   <v>      -0.45266329       0.13385875       0.48033128 </v>
   <v>      -0.04078046       0.48580022       0.47709762 </v>
   <v>      -0.46534354       0.12697428      -0.41223744 </v>
   <v>      -0.37198646       0.46199941       0.40187436 </v>
   <v>      -0.04162460       0.47013279      -0.39881403 </v>
   <v>      -0.42360926       0.41672926       0.47696643 </v>
   <v>      -0.06515939       0.47991494       0.41991922 </v>
   <v>      -0.06586701       0.46954837      -0.46197180 </v>
   <v>      -0.05024023       0.48785390      -0.34938602 </v>
   <v>      -0.38386004       0.43057937       0.43418939 </v>
   <v>      -0.46899183       0.36486189      -0.44827220 </v>
   <v>      -0.42464513       0.18707494       0.47863415 </v>
   <v>      -0.43802247       0.37635460      -0.48151011 </v>
   <v>      -0.37358347       0.19416344      -0.44489602 </v>
   <v>      -0.46912436       0.19283192       0.40175849 </v>
   <v>      -0.11329098       0.45752192       0.42111273 </v>
   <v>      -0.38472319       0.21337731      -0.47905377 </v>
   <v>      -0.43806265       0.21265065       0.43472378 </v>
   <v>      -0.11583638       0.44862616      -0.45997665 </v>
   <v>      -0.13114585       0.45289240       0.37281081 </v>
   <v>      -0.35875689       0.40550794       0.43367401 </v>
   <v>      -0.14114603       0.44117554       0.47995825 </v>
   <v>      -0.41358062       0.35062181      -0.48252996 </v>
   <v>      -0.13474201       0.43637190      -0.41233644 </v>
   <v>      -0.32756687       0.41696817       0.40097577 </v>
   <v>      -0.37333481       0.36523904       0.47543452 </v>
   <v>      -0.35891736       0.26358408      -0.48057179 </v>
   <v>      -0.41295020       0.26284417       0.43374089 </v>
   <v>      -0.42520780       0.31922230      -0.45032786 </v>
   <v>      -0.32780118       0.28365748      -0.44785820 </v>
   <v>      -0.37303885       0.28887238       0.47612366 </v>
   <v>      -0.42404878       0.28232649       0.40011460 </v>
   <v>      -0.19444823       0.41600603       0.47809480 </v>
   <v>      -0.29088919       0.41704122      -0.44939713 </v>
   <v>      -0.20051198       0.36484170       0.40264651 </v>
   <v>      -0.20125709       0.46085340      -0.44673836 </v>
   <v>      -0.34759397       0.33995054       0.47538250 </v>
   <v>      -0.29018509       0.32031266       0.40129472 </v>
   <v>      -0.22023767       0.37646947       0.43503407 </v>
   <v>      -0.27093207       0.40562629      -0.48160631 </v>
   <v>      -0.22063694       0.43009590      -0.48026611 </v>
   <v>      -0.29643953       0.36566636       0.47595284 </v>
   <v>      -0.27052968       0.35131815       0.43424513 </v>
  </varray>
 </structure>
 <varray name="primitive_index" >
  <v type="int" >        1 </v>
  <v type="int" >       37 </v>
  <v type="int" >       38 </v>
  <v type="int" >       47 </v>
  <v type="int" >        2 </v>
  <v type="int" >       48 </v>
  <v type="int" >      117 </v>
  <v type="int" >       54 </v>
  <v type="int" >        7 </v>
  <v type="int" >       41 </v>
  <v type="int" >       39 </v>
  <v type="int" >       50 </v>
  <v type="int" >       53 </v>
  <v type="int" >       40 </v>
  <v type="int" >       49 </v>
  <v type="int" >       10 </v>
  <v type="int" >        8 </v>
  <v type="int" >       51 </v>
  <v type="int" >       11 </v>
  <v type="int" >        3 </v>
  <v type="int" >       52 </v>
  <v type="int" >       59 </v>
  <v type="int" >        5 </v>
  <v type="int" >       42 </v>
  <v type="int" >        4 </v>
  <v type="int" >       45 </v>
  <v type="int" >       55 </v>
  <v type="int" >        9 </v>
  <v type="int" >       12 </v>
  <v type="int" >       60 </v>
  <v type="int" >       58 </v>
  <v type="int" >       46 </v>
  <v type="int" >        6 </v>
  <v type="int" >       15 </v>
  <v type="int" >       56 </v>
  <v type="int" >       44 </v>
  <v type="int" >       83 </v>
  <v type="int" >       34 </v>
  <v type="int" >       14 </v>
  <v type="int" >       96 </v>
  <v type="int" >       57 </v>
  <v type="int" >      115 </v>
  <v type="int" >      103 </v>
  <v type="int" >      116 </v>
  <v type="int" >       13 </v>
  <v type="int" >       43 </v>
  <v type="int" >       82 </v>
  <v type="int" >      124 </v>
  <v type="int" >      104 </v>
  <v type="int" >       61 </v>
  <v type="int" >       30 </v>
  <v type="int" >       81 </v>
  <v type="int" >      105 </v>
  <v type="int" >      120 </v>
  <v type="int" >       89 </v>
  <v type="int" >       93 </v>
  <v type="int" >      114 </v>
  <v type="int" >       16 </v>
  <v type="int" >       62 </v>
  <v type="int" >      123 </v>
  <v type="int" >      128 </v>
  <v type="int" >      101 </v>
  <v type="int" >      106 </v>
  <v type="int" >       84 </v>
  <v type="int" >       88 </v>
  <v type="int" >      119 </v>
  <v type="int" >      113 </v>
  <v type="int" >      110 </v>
  <v type="int" >      126 </v>
  <v type="int" >      125 </v>
  <v type="int" >       95 </v>
  <v type="int" >       97 </v>
  <v type="int" >      107 </v>
  <v type="int" >      122 </v>
  <v type="int" >       87 </v>
  <v type="int" >      109 </v>
  <v type="int" >      102 </v>
  <v type="int" >       32 </v>
  <v type="int" >       94 </v>
  <v type="int" >       86 </v>
  <v type="int" >      108 </v>
  <v type="int" >       36 </v>
  <v type="int" >       98 </v>
  <v type="int" >       29 </v>
  <v type="int" >      112 </v>
  <v type="int" >       85 </v>
  <v type="int" >       90 </v>
  <v type="int" >       33 </v>
  <v type="int" >       28 </v>
  <v type="int" >      127 </v>
  <v type="int" >       68 </v>
  <v type="int" >      121 </v>
  <v type="int" >       99 </v>
  <v type="int" >      111 </v>
  <v type="int" >       69 </v>
  <v type="int" >       22 </v>
  <v type="int" >       73 </v>
  <v type="int" >       67 </v>
  <v type="int" >       17 </v>
  <v type="int" >       20 </v>
  <v type="int" >       92 </v>
  <v type="int" >       72 </v>
  <v type="int" >       74 </v>
  <v type="int" >      100 </v>
  <v type="int" >       31 </v>
  <v type="int" >       70 </v>
  <v type="int" >       91 </v>
  <v type="int" >       66 </v>
  <v type="int" >       35 </v>
  <v type="int" >       27 </v>
  <v type="int" >       65 </v>
  <v type="int" >       71 </v>
  <v type="int" >       75 </v>
  <v type="int" >       21 </v>
  <v type="int" >       18 </v>
  <v type="int" >       63 </v>
  <v type="int" >       19 </v>
  <v type="int" >       78 </v>
  <v type="int" >       26 </v>
  <v type="int" >       24 </v>
  <v type="int" >       25 </v>
  <v type="int" >      118 </v>
  <v type="int" >       23 </v>
  <v type="int" >       77 </v>
  <v type="int" >       80 </v>
  <v type="int" >       79 </v>
  <v type="int" >       64 </v>
  <v type="int" >       76 </v>
 </varray>
 <kpoints>
  <generation param="listgenerated">
   <i name="divisions" type="int">      20 </i>
   <v>       0.00000000       0.00000000       0.00000000 </v>
   <v>       0.50000000       0.00000000       0.00000000 </v>
   <v>       0.33333333       0.33333333       0.00000000 </v>
   <v>       0.00000000       0.00000000       0.00000000 </v>
  </generation>
  <varray name="kpointlist" >
   <v>       0.00000000       0.00000000       0.00000000 </v>
   <v>       0.02631579       0.00000000       0.00000000 </v>
   <v>       0.05263158       0.00000000       0.00000000 </v>
   <v>       0.07894737       0.00000000       0.00000000 </v>
   <v>       0.10526316       0.00000000       0.00000000 </v>
   <v>       0.13157895       0.00000000       0.00000000 </v>
   <v>       0.15789474       0.00000000       0.00000000 </v>
   <v>       0.18421053       0.00000000       0.00000000 </v>
   <v>       0.21052632       0.00000000       0.00000000 </v>
   <v>       0.23684211       0.00000000       0.00000000 </v>
   <v>       0.26315789       0.00000000       0.00000000 </v>
   <v>       0.28947368       0.00000000       0.00000000 </v>
   <v>       0.31578947       0.00000000       0.00000000 </v>
   <v>       0.34210526       0.00000000       0.00000000 </v>
   <v>       0.36842105       0.00000000       0.00000000 </v>
   <v>       0.39473684       0.00000000       0.00000000 </v>
   <v>       0.42105263       0.00000000       0.00000000 </v>
   <v>       0.44736842       0.00000000       0.00000000 </v>
   <v>       0.47368421       0.00000000       0.00000000 </v>
   <v>       0.50000000       0.00000000       0.00000000 </v>
   <v>       0.50000000       0.00000000       0.00000000 </v>
   <v>       0.49122807       0.01754386       0.00000000 </v>
   <v>       0.48245614       0.03508772       0.00000000 </v>
   <v>       0.47368421       0.05263158       0.00000000 </v>
   <v>       0.46491228       0.07017544       0.00000000 </v>
   <v>       0.45614035       0.08771930       0.00000000 </v>
   <v>       0.44736842       0.10526316       0.00000000 </v>
   <v>       0.43859649       0.12280702       0.00000000 </v>
   <v>       0.42982456       0.14035088       0.00000000 </v>
   <v>       0.42105263       0.15789474       0.00000000 </v>
   <v>       0.41228070       0.17543860       0.00000000 </v>
   <v>       0.40350877       0.19298246       0.00000000 </v>
   <v>       0.39473684       0.21052632       0.00000000 </v>
   <v>       0.38596491       0.22807018       0.00000000 </v>
   <v>       0.37719298       0.24561404       0.00000000 </v>
   <v>       0.36842105       0.26315789       0.00000000 </v>
   <v>       0.35964912       0.28070175       0.00000000 </v>
   <v>       0.35087719       0.29824561       0.00000000 </v>
   <v>       0.34210526       0.31578947       0.00000000 </v>
   <v>       0.33333333       0.33333333       0.00000000 </v>
   <v>       0.33333333       0.33333333       0.00000000 </v>
   <v>       0.31578947       0.31578947       0.00000000 </v>
   <v>       0.29824561       0.29824561       0.00000000 </v>
   <v>       0.28070175       0.28070175       0.00000000 </v>
   <v>       0.26315789       0.26315789       0.00000000 </v>
   <v>       0.24561404       0.24561404       0.00000000 </v>
   <v>       0.22807018       0.22807018       0.00000000 </v>
   <v>       0.21052632       0.21052632       0.00000000 </v>
   <v>       0.19298246       0.19298246       0.00000000 </v>
   <v>       0.17543860       0.17543860       0.00000000 </v>
   <v>       0.15789474       0.15789474       0.00000000 </v>
   <v>       0.14035088       0.14035088       0.00000000 </v>
   <v>       0.12280702       0.12280702       0.00000000 </v>
   <v>       0.10526316       0.10526316       0.00000000 </v>
   <v>       0.08771930       0.08771930       0.00000000 </v>
   <v>       0.07017544       0.07017544       0.00000000 </v>
   <v>       0.05263158       0.05263158       0.00000000 </v>
   <v>       0.03508772       0.03508772       0.00000000 </v>
   <v>       0.01754386       0.01754386       0.00000000 </v>
   <v>       0.00000000       0.00000000       0.00000000 </v>
  </varray>
  <varray name="weights" >
   <v>       0.01666667 </v>
   <v>       0.01666667 </v>
   <v>       0.01666667 </v>
   <v>       0.01666667 </v>
   <v>       0.01666667 </v>
   <v>       0.01666667 </v>
   <v>       0.01666667 </v>
   <v>       0.01666667 </v>
   <v>       0.01666667 </v>
   <v>       0.01666667 </v>
   <v>       0.01666667 </v>
   <v>       0.01666667 </v>
   <v>       0.01666667 </v>
   <v>       0.01666667 </v>
   <v>       0.01666667 </v>
   <v>       0.01666667 </v>
   <v>       0.01666667 </v>
   <v>       0.01666667 </v>
   <v>       0.01666667 </v>
   <v>       0.01666667 </v>
   <v>       0.01666667 </v>
   <v>       0.01666667 </v>
   <v>       0.01666667 </v>
   <v>       0.01666667 </v>
   <v>       0.01666667 </v>
   <v>       0.01666667 </v>
   <v>       0.01666667 </v>
   <v>       0.01666667 </v>
   <v>       0.01666667 </v>
   <v>       0.01666667 </v>
   <v>       0.01666667 </v>
   <v>       0.01666667 </v>
   <v>       0.01666667 </v>
   <v>       0.01666667 </v>
   <v>       0.01666667 </v>
   <v>       0.01666667 </v>
   <v>       0.01666667 </v>
   <v>       0.01666667 </v>
   <v>       0.01666667 </v>
   <v>       0.01666667 </v>
   <v>       0.01666667 </v>
   <v>       0.01666667 </v>
   <v>       0.01666667 </v>
   <v>       0.01666667 </v>
   <v>       0.01666667 </v>
   <v>       0.01666667 </v>
   <v>       0.01666667 </v>
   <v>       0.01666667 </v>
   <v>       0.01666667 </v>
   <v>       0.01666667 </v>
   <v>       0.01666667 </v>
   <v>       0.01666667 </v>
   <v>       0.01666667 </v>
   <v>       0.01666667 </v>
   <v>       0.01666667 </v>
   <v>       0.01666667 </v>
   <v>       0.01666667 </v>
   <v>       0.01666667 </v>
   <v>       0.01666667 </v>
   <v>       0.01666667 </v>
  </varray>
 </kpoints>
 <parameters>
  <separator name="general" >
   <i type="string" name="SYSTEM">Simulation for cell shape cell volume r</i>
   <i type="logical" name="LCOMPAT"> F  </i>
  </separator>
  <separator name="electronic" >
   <i type="string" name="PREC">high</i>
   <i name="ENMAX">    500.00000000</i>
   <i name="ENAUG">    644.87300000</i>
   <i name="EDIFF">      0.00001000</i>
   <i type="int" name="IALGO">    38</i>
   <i type="int" name="IWAVPR">    10</i>
   <i type="int" name="NBANDS">   288</i>
   <i name="NELECT">    442.00000000</i>
   <i type="int" name="TURBO">     0</i>
   <i type="int" name="IRESTART">     0</i>
   <i type="int" name="NREBOOT">     0</i>
   <i type="int" name="NMIN">     0</i>
   <i name="EREF">      0.00000000</i>
   <separator name="electronic smearing" >
    <i type="int" name="ISMEAR">     0</i>
    <i name="SIGMA">      0.01000000</i>
    <i name="KSPACING">      0.50000000</i>
    <i type="logical" name="KGAMMA"> T  </i>
   </separator>
   <separator name="electronic projectors" >
    <i type="logical" name="LREAL"> T  </i>
    <v name="ROPT">     -0.00040000     -0.00040000     -0.00040000     -0.00040000</v>
    <i type="int" name="LMAXPAW">  -100</i>
    <i type="int" name="LMAXMIX">     2</i>
    <i type="logical" name="NLSPLINE"> F  </i>
   </separator>
   <separator name="electronic startup" >
    <i type="int" name="ISTART">     1</i>
    <i type="int" name="ICHARG">    11</i>
    <i type="int" name="INIWAV">     1</i>
   </separator>
   <separator name="electronic spin" >
    <i type="int" name="ISPIN">     1</i>
    <i type="logical" name="LNONCOLLINEAR"> F  </i>
    <v name="MAGMOM">      1.00000000      1.00000000      1.00000000      1.00000000      1.00000000      1.00000000      1.00000000      1.00000000      1.00000000      1.00000000      1.00000000      1.00000000      1.00000000      1.00000000      1.00000000      1.00000000      1.00000000      1.00000000      1.00000000      1.00000000
      1.00000000      1.00000000      1.00000000      1.00000000      1.00000000      1.00000000      1.00000000      1.00000000      1.00000000      1.00000000      1.00000000      1.00000000      1.00000000      1.00000000      1.00000000      1.00000000      1.00000000      1.00000000      1.00000000      1.00000000
      1.00000000      1.00000000      1.00000000      1.00000000      1.00000000      1.00000000      1.00000000      1.00000000      1.00000000      1.00000000      1.00000000      1.00000000      1.00000000      1.00000000      1.00000000      1.00000000      1.00000000      1.00000000      1.00000000      1.00000000
      1.00000000      1.00000000      1.00000000      1.00000000      1.00000000      1.00000000      1.00000000      1.00000000      1.00000000      1.00000000      1.00000000      1.00000000      1.00000000      1.00000000      1.00000000      1.00000000      1.00000000      1.00000000      1.00000000      1.00000000
      1.00000000      1.00000000      1.00000000      1.00000000      1.00000000      1.00000000      1.00000000      1.00000000      1.00000000      1.00000000      1.00000000      1.00000000      1.00000000      1.00000000      1.00000000      1.00000000      1.00000000      1.00000000      1.00000000      1.00000000
      1.00000000      1.00000000      1.00000000      1.00000000      1.00000000      1.00000000      1.00000000      1.00000000      1.00000000      1.00000000      1.00000000      1.00000000      1.00000000      1.00000000      1.00000000      1.00000000      1.00000000      1.00000000      1.00000000      1.00000000
      1.00000000      1.00000000      1.00000000      1.00000000      1.00000000      1.00000000      1.00000000      1.00000000</v>
    <i name="NUPDOWN">     -1.00000000</i>
    <i type="logical" name="LSORBIT"> F  </i>
    <v name="SAXIS">      0.00000000      0.00000000      1.00000000</v>
    <i type="logical" name="LSPIRAL"> F  </i>
    <v name="QSPIRAL">      0.00000000      0.00000000      0.00000000</v>
    <i type="logical" name="LZEROZ"> F  </i>
   </separator>
   <separator name="electronic exchange-correlation" >
    <i type="logical" name="LASPH"> F  </i>
    <i type="logical" name="LMETAGGA"> F  </i>
   </separator>
   <separator name="electronic convergence" >
    <i type="int" name="NELM">   200</i>
    <i type="int" name="NELMDL">     0</i>
    <i type="int" name="NELMIN">     2</i>
    <i name="ENINI">    500.00000000</i>
    <separator name="electronic convergence detail" >
     <i type="logical" name="LDIAG"> T  </i>
     <i type="logical" name="LSUBROT"> F  </i>
     <i name="WEIMIN">      0.00000000</i>
     <i name="EBREAK">      0.00000001</i>
     <i name="DEPER">      0.30000000</i>
     <i type="int" name="NRMM">     4</i>
     <i name="TIME">      0.40000000</i>
    </separator>
   </separator>
   <separator name="electronic mixer" >
    <i name="AMIX">      0.40000000</i>
    <i name="BMIX">      1.00000000</i>
    <i name="AMIN">      0.10000000</i>
    <i name="AMIX_MAG">      1.60000000</i>
    <i name="BMIX_MAG">      1.00000000</i>
    <separator name="electronic mixer details" >
     <i type="int" name="IMIX">     4</i>
     <i type="logical" name="MIXFIRST"> F  </i>
     <i type="int" name="MAXMIX">   -45</i>
     <i name="WC">    100.00000000</i>
     <i type="int" name="INIMIX">     1</i>
     <i type="int" name="MIXPRE">     1</i>
     <i type="int" name="MREMOVE">     5</i>
    </separator>
   </separator>
   <separator name="electronic dipolcorrection" >
    <i type="logical" name="LDIPOL"> F  </i>
    <i type="logical" name="LMONO"> F  </i>
    <i type="int" name="IDIPOL">     0</i>
    <i name="EPSILON">      1.00000000</i>
    <v name="DIPOL">   -100.00000000   -100.00000000   -100.00000000</v>
    <i name="EFIELD">      0.00000000</i>
   </separator>
  </separator>
  <separator name="grids" >
   <i type="int" name="NGX">   240</i>
   <i type="int" name="NGY">   240</i>
   <i type="int" name="NGZ">   150</i>
   <i type="int" name="NGXF">   360</i>
   <i type="int" name="NGYF">   360</i>
   <i type="int" name="NGZF">   224</i>
   <i type="logical" name="ADDGRID"> F  </i>
  </separator>
  <separator name="ionic" >
   <i type="int" name="NSW">     0</i>
   <i type="int" name="IBRION">    -1</i>
   <i type="int" name="MDALGO">     0</i>
   <i type="int" name="ISIF">     2</i>
   <i name="PSTRESS">      0.00000000</i>
   <i name="EDIFFG">     -0.01000000</i>
   <i type="int" name="NFREE">     0</i>
   <i name="POTIM">      0.30000000</i>
   <i name="SMASS">     -3.00000000</i>
   <i name="SCALEE">      1.00000000</i>
  </separator>
  <separator name="ionic md" >
   <i name="TEBEG">      0.00010000</i>
   <i name="TEEND">      0.00010000</i>
   <i type="int" name="NBLOCK">     1</i>
   <i type="int" name="KBLOCK">     1</i>
   <i type="int" name="NPACO">   256</i>
   <i name="APACO">     16.00000000</i>
  </separator>
  <separator name="symmetry" >
   <i type="int" name="ISYM">     2</i>
   <i name="SYMPREC">      0.00001000</i>
  </separator>
  <separator name="dos" >
   <i type="int" name="LORBIT">     0</i>
   <v name="RWIGS">     -1.00000000     -1.00000000     -1.00000000     -1.00000000</v>
   <i type="int" name="NEDOS">   301</i>
   <i name="EMIN">     10.00000000</i>
   <i name="EMAX">    -10.00000000</i>
   <i name="EFERMI">      0.00000000</i>
  </separator>
  <separator name="writing" >
   <i type="int" name="NWRITE">     0</i>
   <i type="logical" name="LWAVE"> F  </i>
   <i type="logical" name="LDOWNSAMPLE"> F  </i>
   <i type="logical" name="LCHARG"> F  </i>
   <i type="logical" name="LPARD"> F  </i>
   <i type="logical" name="LVTOT"> F  </i>
   <i type="logical" name="LVHAR"> F  </i>
   <i type="logical" name="LELF"> F  </i>
   <i type="logical" name="LOPTICS"> F  </i>
   <v name="STM">      0.00000000      0.00000000      0.00000000      0.00000000      0.00000000      0.00000000      0.00000000</v>
  </separator>
  <separator name="performance" >
   <i type="int" name="NPAR">    16</i>
   <i type="int" name="NSIM">     4</i>
   <i type="int" name="NBLK">    -1</i>
   <i type="logical" name="LPLANE"> T  </i>
   <i type="logical" name="LSCALAPACK"> T  </i>
   <i type="logical" name="LSCAAWARE"> F  </i>
   <i type="logical" name="LSCALU"> F  </i>
   <i type="logical" name="LASYNC"> F  </i>
   <i type="logical" name="LORBITALREAL"> F  </i>
  </separator>
  <separator name="miscellaneous" >
   <i type="int" name="IDIOT">     3</i>
   <i type="int" name="ISPECIAL">     0</i>
   <i type="logical" name="LMUSIC"> F  </i>
   <v name="POMASS">      1.00000000     12.01100000     16.00000000     14.00100000</v>
   <v name="DARWINR">      0.00000000      0.00000000      0.00000000      0.00000000</v>
   <v name="DARWINV">      1.00000000      1.00000000      1.00000000      1.00000000</v>
   <i type="logical" name="LCORR"> T  </i>
  </separator>
  <i type="logical" name="GGA_COMPAT"> T  </i>
  <i type="logical" name="LBERRY"> F  </i>
  <i type="int" name="ICORELEVEL">     0</i>
  <i type="logical" name="LDAU"> F  </i>
  <i type="int" name="I_CONSTRAINED_M">     0</i>
  <separator name="electronic exchange-correlation" >
   <i type="string" name="GGA">PE</i>
   <i type="int" name="VOSKOWN">     0</i>
   <i type="logical" name="LHFCALC"> F  </i>
   <i type="string" name="PRECFOCK"></i>
   <i type="logical" name="LSYMGRAD"> F  </i>
   <i type="logical" name="LHFONE"> F  </i>
   <i type="logical" name="LRHFCALC"> F  </i>
   <i type="logical" name="LTHOMAS"> F  </i>
   <i type="logical" name="LMODELHF"> F  </i>
   <i name="ENCUT4O">     -1.00000000</i>
   <i type="int" name="EXXOEP">     0</i>
   <i type="int" name="FOURORBIT">     0</i>
   <i name="AEXX">      0.00000000</i>
   <i name="HFALPHA">      0.00000000</i>
   <i name="MCALPHA">      0.00000000</i>
   <i name="ALDAX">      1.00000000</i>
   <i name="AGGAX">      1.00000000</i>
   <i name="ALDAC">      1.00000000</i>
   <i name="AGGAC">      1.00000000</i>
   <i type="int" name="NKREDX">     1</i>
   <i type="int" name="NKREDY">     1</i>
   <i type="int" name="NKREDZ">     1</i>
   <i type="logical" name="SHIFTRED"> F  </i>
   <i type="logical" name="ODDONLY"> F  </i>
   <i type="logical" name="EVENONLY"> F  </i>
   <i type="int" name="LMAXFOCK">     0</i>
   <i type="int" name="NMAXFOCKAE">     0</i>
   <i type="logical" name="LFOCKAEDFT"> F  </i>
   <i name="HFSCREEN">      0.00000000</i>
   <i name="HFSCREENC">      0.00000000</i>
   <i type="int" name="NBANDSGWLOW">     0</i>
  </separator>
  <separator name="vdW DFT" >
   <i type="logical" name="LUSE_VDW"> F  </i>
   <i name="Zab_VDW">     -0.84910000</i>
   <i name="PARAM1">      0.12340000</i>
   <i name="PARAM2">      1.00000000</i>
   <i name="PARAM3">      0.00000000</i>
  </separator>
  <separator name="model GW" >
   <i type="int" name="MODEL_GW">     0</i>
   <i name="MODEL_EPS0">     82.99986908</i>
   <i name="MODEL_ALPHA">      1.00000000</i>
  </separator>
  <separator name="linear response parameters" >
   <i type="logical" name="LEPSILON"> F  </i>
   <i type="logical" name="LRPA"> F  </i>
   <i type="logical" name="LNABLA"> F  </i>
   <i type="logical" name="LVEL"> F  </i>
   <i type="int" name="KINTER">     0</i>
   <i name="CSHIFT">      0.10000000</i>
   <i name="OMEGAMAX">     -1.00000000</i>
   <i name="DEG_THRESHOLD">      0.00200000</i>
   <i name="RTIME">     -0.10000000</i>
   <i name="WPLASMAI">      0.00000000</i>
   <v name="DFIELD">      0.00000000      0.00000000      0.00000000</v>
   <v name="WPLASMA">      0.00000000      0.00000000      0.00000000      0.00000000      0.00000000      0.00000000      0.00000000      0.00000000      0.00000000</v>
  </separator>
  <separator name="orbital magnetization" >
   <i type="logical" name="NUCIND"> F  </i>
   <v name="MAGPOS">      0.00000000      0.00000000      0.00000000</v>
   <i type="logical" name="LNICSALL"> T  </i>
   <i type="logical" name="ORBITALMAG"> F  </i>
   <i type="logical" name="LMAGBLOCH"> F  </i>
   <i type="logical" name="LCHIMAG"> F  </i>
   <i type="logical" name="LGAUGE"> T  </i>
   <i type="int" name="MAGATOM">     0</i>
   <v name="MAGDIPOL">      0.00000000      0.00000000      0.00000000</v>
   <v name="AVECCONST">      0.00000000      0.00000000      0.00000000</v>
  </separator>
  <separator name="response functions" >
   <i type="logical" name="LADDER"> F  </i>
   <i type="logical" name="LRPAFORCE"> F  </i>
   <i type="logical" name="LFXC"> F  </i>
   <i type="logical" name="LHARTREE"> T  </i>
   <i type="int" name="IBSE">     0</i>
   <v type="int" name="KPOINT">    -1     0     0     0</v>
   <i type="logical" name="LTCTE"> F  </i>
   <i type="logical" name="LTETE"> F  </i>
   <i type="logical" name="LTRIPLET"> F  </i>
   <i type="logical" name="LFXCEPS"> F  </i>
   <i type="logical" name="LFXHEG"> F  </i>
   <i type="int" name="NATURALO">     2</i>
   <i type="logical" name="L2ORDER"> F  </i>
   <i type="logical" name="LMP2LT"> F  </i>
   <i type="logical" name="LUSEW"> F  </i>
   <i name="ENCUTGW">     -2.00000000</i>
   <i name="ENCUTGWSOFT">     -2.00000000</i>
   <i name="ENCUTLF">     -1.00000000</i>
   <i type="int" name="LMAXMP2">    -1</i>
   <i name="SCISSOR">      0.00000000</i>
   <i type="int" name="NOMEGA">     0</i>
   <i type="int" name="NOMEGAR">     0</i>
   <i type="int" name="NBANDSGW">    -1</i>
   <i type="int" name="NBANDSO">    -1</i>
   <i type="int" name="NBANDSV">    -1</i>
   <i type="int" name="NELM">   200</i>
   <i type="int" name="NELMHF">     1</i>
   <i type="int" name="DIM">     3</i>
   <i type="int" name="ANTIRES">     0</i>
   <i name="OMEGAMAX">    -30.00000000</i>
   <i name="OMEGAMIN">    -30.00000000</i>
   <i name="OMEGATL">   -200.00000000</i>
   <i type="int" name="OMEGAGRID">   140</i>
   <i name="CSHIFT">     -0.10000000</i>
   <i type="logical" name="SELFENERGY"> F  </i>
   <i type="logical" name="LSPECTRAL"> F  </i>
   <i type="logical" name="LSPECTRALGW"> F  </i>
   <i type="logical" name="LSINGLES"> F  </i>
   <i type="logical" name="LFERMIGW"> F  </i>
   <i type="logical" name="ODDONLYGW"> F  </i>
   <i type="logical" name="EVENONLYGW"> F  </i>
   <i type="int" name="NKREDLFX">     1</i>
   <i type="int" name="NKREDLFY">     1</i>
   <i type="int" name="NKREDLFZ">     1</i>
   <i type="int" name="MAXMEM">  2800</i>
   <i type="int" name="TELESCOPE">     0</i>
   <i type="int" name="TAUPAR">     1</i>
   <i type="int" name="OMEGAPAR">    -1</i>
   <i name="LAMBDA">      1.00000000</i>
  </separator>
  <separator name="External order field" >
   <i name="OFIELD_KAPPA">      0.00000000</i>
   <v name="OFIELD_K">      0.00000000      0.00000000      0.00000000</v>
   <i name="OFIELD_Q6_NEAR">      0.00000000</i>
   <i name="OFIELD_Q6_FAR">      0.00000000</i>
   <i name="OFIELD_A">      0.00000000</i>
  </separator>
  <separator name="solvation model" >
   <i type="logical" name="LSOL"> F  </i>
  </separator>
 </parameters>
 <atominfo>
  <atoms>     128 </atoms>
  <types>       4 </types>
  <array name="atoms" >
   <dimension dim="1">ion</dimension>
   <field type="string">element</field>
   <field type="int">atomtype</field>
   <set>
    <rc><c>H </c><c>   1</c></rc>
    <rc><c>H </c><c>   1</c></rc>
    <rc><c>H </c><c>   1</c></rc>
    <rc><c>H </c><c>   1</c></rc>
    <rc><c>H </c><c>   1</c></rc>
    <rc><c>H </c><c>   1</c></rc>
    <rc><c>H </c><c>   1</c></rc>
    <rc><c>H </c><c>   1</c></rc>
    <rc><c>H </c><c>   1</c></rc>
    <rc><c>H </c><c>   1</c></rc>
    <rc><c>H </c><c>   1</c></rc>
    <rc><c>H </c><c>   1</c></rc>
    <rc><c>H </c><c>   1</c></rc>
    <rc><c>H </c><c>   1</c></rc>
    <rc><c>H </c><c>   1</c></rc>
    <rc><c>H </c><c>   1</c></rc>
    <rc><c>H </c><c>   1</c></rc>
    <rc><c>H </c><c>   1</c></rc>
    <rc><c>H </c><c>   1</c></rc>
    <rc><c>H </c><c>   1</c></rc>
    <rc><c>H </c><c>   1</c></rc>
    <rc><c>H </c><c>   1</c></rc>
    <rc><c>H </c><c>   1</c></rc>
    <rc><c>H </c><c>   1</c></rc>
    <rc><c>H </c><c>   1</c></rc>
    <rc><c>H </c><c>   1</c></rc>
    <rc><c>H </c><c>   1</c></rc>
    <rc><c>H </c><c>   1</c></rc>
    <rc><c>H </c><c>   1</c></rc>
    <rc><c>H </c><c>   1</c></rc>
    <rc><c>H </c><c>   1</c></rc>
    <rc><c>H </c><c>   1</c></rc>
    <rc><c>H </c><c>   1</c></rc>
    <rc><c>H </c><c>   1</c></rc>
    <rc><c>H </c><c>   1</c></rc>
    <rc><c>H </c><c>   1</c></rc>
    <rc><c>C </c><c>   2</c></rc>
    <rc><c>C </c><c>   2</c></rc>
    <rc><c>C </c><c>   2</c></rc>
    <rc><c>C </c><c>   2</c></rc>
    <rc><c>C </c><c>   2</c></rc>
    <rc><c>C </c><c>   2</c></rc>
    <rc><c>C </c><c>   2</c></rc>
    <rc><c>C </c><c>   2</c></rc>
    <rc><c>C </c><c>   2</c></rc>
    <rc><c>C </c><c>   2</c></rc>
    <rc><c>C </c><c>   2</c></rc>
    <rc><c>C </c><c>   2</c></rc>
    <rc><c>C </c><c>   2</c></rc>
    <rc><c>C </c><c>   2</c></rc>
    <rc><c>C </c><c>   2</c></rc>
    <rc><c>C </c><c>   2</c></rc>
    <rc><c>C </c><c>   2</c></rc>
    <rc><c>C </c><c>   2</c></rc>
    <rc><c>C </c><c>   2</c></rc>
    <rc><c>C </c><c>   2</c></rc>
    <rc><c>C </c><c>   2</c></rc>
    <rc><c>C </c><c>   2</c></rc>
    <rc><c>C </c><c>   2</c></rc>
    <rc><c>C </c><c>   2</c></rc>
    <rc><c>C </c><c>   2</c></rc>
    <rc><c>C </c><c>   2</c></rc>
    <rc><c>C </c><c>   2</c></rc>
    <rc><c>C </c><c>   2</c></rc>
    <rc><c>C </c><c>   2</c></rc>
    <rc><c>C </c><c>   2</c></rc>
    <rc><c>C </c><c>   2</c></rc>
    <rc><c>C </c><c>   2</c></rc>
    <rc><c>C </c><c>   2</c></rc>
    <rc><c>C </c><c>   2</c></rc>
    <rc><c>C </c><c>   2</c></rc>
    <rc><c>C </c><c>   2</c></rc>
    <rc><c>C </c><c>   2</c></rc>
    <rc><c>C </c><c>   2</c></rc>
    <rc><c>C </c><c>   2</c></rc>
    <rc><c>C </c><c>   2</c></rc>
    <rc><c>C </c><c>   2</c></rc>
    <rc><c>C </c><c>   2</c></rc>
    <rc><c>C </c><c>   2</c></rc>
    <rc><c>C </c><c>   2</c></rc>
    <rc><c>C </c><c>   2</c></rc>
    <rc><c>C </c><c>   2</c></rc>
    <rc><c>C </c><c>   2</c></rc>
    <rc><c>C </c><c>   2</c></rc>
    <rc><c>C </c><c>   2</c></rc>
    <rc><c>C </c><c>   2</c></rc>
    <rc><c>C </c><c>   2</c></rc>
    <rc><c>C </c><c>   2</c></rc>
    <rc><c>C </c><c>   2</c></rc>
    <rc><c>C </c><c>   2</c></rc>
    <rc><c>C </c><c>   2</c></rc>
    <rc><c>C </c><c>   2</c></rc>
    <rc><c>C </c><c>   2</c></rc>
    <rc><c>C </c><c>   2</c></rc>
    <rc><c>C </c><c>   2</c></rc>
    <rc><c>C </c><c>   2</c></rc>
    <rc><c>C </c><c>   2</c></rc>
    <rc><c>C </c><c>   2</c></rc>
    <rc><c>C </c><c>   2</c></rc>
    <rc><c>C </c><c>   2</c></rc>
    <rc><c>C </c><c>   2</c></rc>
    <rc><c>C </c><c>   2</c></rc>
    <rc><c>O </c><c>   3</c></rc>
    <rc><c>O </c><c>   3</c></rc>
    <rc><c>O </c><c>   3</c></rc>
    <rc><c>O </c><c>   3</c></rc>
    <rc><c>O </c><c>   3</c></rc>
    <rc><c>O </c><c>   3</c></rc>
    <rc><c>O </c><c>   3</c></rc>
    <rc><c>O </c><c>   3</c></rc>
    <rc><c>O </c><c>   3</c></rc>
    <rc><c>O </c><c>   3</c></rc>
    <rc><c>O </c><c>   3</c></rc>
    <rc><c>O </c><c>   3</c></rc>
    <rc><c>N </c><c>   4</c></rc>
    <rc><c>N </c><c>   4</c></rc>
    <rc><c>N </c><c>   4</c></rc>
    <rc><c>N </c><c>   4</c></rc>
    <rc><c>N </c><c>   4</c></rc>
    <rc><c>N </c><c>   4</c></rc>
    <rc><c>N </c><c>   4</c></rc>
    <rc><c>N </c><c>   4</c></rc>
    <rc><c>N </c><c>   4</c></rc>
    <rc><c>N </c><c>   4</c></rc>
    <rc><c>N </c><c>   4</c></rc>
    <rc><c>N </c><c>   4</c></rc>
    <rc><c>N </c><c>   4</c></rc>
    <rc><c>N </c><c>   4</c></rc>
   </set>
  </array>
  <array name="atomtypes" >
   <dimension dim="1">type</dimension>
   <field type="int">atomspertype</field>
   <field type="string">element</field>
   <field>mass</field>
   <field>valence</field>
   <field type="string">pseudopotential</field>
   <set>
    <rc><c>  36</c><c>H </c><c>      1.00000000</c><c>      1.00000000</c><c>  PAW_PBE H 15Jun2001                   </c></rc>
    <rc><c>  66</c><c>C </c><c>     12.01100000</c><c>      4.00000000</c><c>  PAW_PBE C 08Apr2002                   </c></rc>
    <rc><c>  12</c><c>O </c><c>     16.00000000</c><c>      6.00000000</c><c>  PAW_PBE O 08Apr2002                   </c></rc>
    <rc><c>  14</c><c>N </c><c>     14.00100000</c><c>      5.00000000</c><c>  PAW_PBE N 08Apr2002                   </c></rc>
   </set>
  </array>
 </atominfo>
 <structure name="initialpos" >
  <crystal>
   <varray name="basis" >
    <v>      31.95753800      -0.04312807       0.00000000 </v>
    <v>     -16.01592974      27.72499787       0.00000000 </v>
    <v>       0.00000000       0.00000000      20.00000000 </v>
   </varray>
   <i name="volume">  17706.63873631 </i>
   <varray name="rec_basis" >
    <v>       0.03131594       0.01809031       0.00000000 </v>
    <v>       0.00004871       0.03609667       0.00000000 </v>
    <v>       0.00000000       0.00000000       0.05000000 </v>
   </varray>
  </crystal>
  <varray name="positions" >
   <v>       0.40200646       0.70024386       0.40375328 </v>
   <v>       0.44868172       0.65845246       0.40296598 </v>
   <v>       0.29733951       0.59151082       0.53576011 </v>
   <v>       0.34247390       0.54806865       0.53219877 </v>
   <v>       0.45972629       0.59929167       0.36791307 </v>
   <v>       0.40611312       0.54305340       0.56589547 </v>
   <v>       0.40195098       0.73326413       0.53644568 </v>
   <v>       0.26433541       0.59205302       0.40331338 </v>
   <v>       0.33581819       0.81734797       0.40203186 </v>
   <v>       0.29374034       0.72880049       0.40308315 </v>
   <v>       0.44566369       0.82193839       0.53273399 </v>
   <v>       0.26069863       0.69602884       0.53669634 </v>
   <v>       0.17183862       0.65105065       0.53339390 </v>
   <v>       0.17558954       0.54557576       0.40267149 </v>
   <v>       0.39619551       0.88737349       0.36637120 </v>
   <v>       0.10289953       0.58616966       0.56745427 </v>
   <v>       0.62641653       0.19416344       0.55510398 </v>
   <v>       0.67219882       0.28365748       0.55214180 </v>
   <v>       0.57595122       0.28232649       0.40011460 </v>
   <v>       0.53087564       0.19283192       0.40175849 </v>
   <v>       0.57479220       0.31922230       0.54967214 </v>
   <v>       0.53100817       0.36486189       0.55172780 </v>
   <v>       0.70981491       0.32031266       0.40129472 </v>
   <v>       0.79948802       0.36484170       0.40264651 </v>
   <v>       0.79874291       0.46085340       0.55326164 </v>
   <v>       0.70911081       0.41704122       0.55060287 </v>
   <v>       0.67243313       0.41696817       0.40097577 </v>
   <v>       0.62801354       0.46199941       0.40187436 </v>
   <v>       0.55064761       0.12438401       0.37334196 </v>
   <v>       0.10565667       0.53680238       0.36675701 </v>
   <v>       0.86885415       0.45289240       0.37281081 </v>
   <v>       0.54097696       0.44476356       0.37166725 </v>
   <v>       0.53465646       0.12697428       0.58776256 </v>
   <v>       0.45007019       0.89060945       0.56614252 </v>
   <v>       0.86525799       0.43637190       0.58766356 </v>
   <v>       0.55494811       0.45449664       0.58695219 </v>
   <v>       0.38912037       0.66700620       0.43225432 </v>
   <v>       0.41511727       0.64292138       0.43152863 </v>
   <v>       0.39942335       0.59972749       0.46739295 </v>
   <v>       0.35632835       0.58179097       0.50450419 </v>
   <v>       0.33044011       0.60601618       0.50634741 </v>
   <v>       0.42771643       0.57495324       0.46678688 </v>
   <v>       0.48214757       0.52885108       0.47243859 </v>
   <v>       0.48565464       0.55726737       0.41674650 </v>
   <v>       0.45767336       0.57912814       0.41289021 </v>
   <v>       0.42743554       0.54676881       0.52125034 </v>
   <v>       0.34643017       0.64901150       0.47005536 </v>
   <v>       0.34475831       0.72470391       0.47001048 </v>
   <v>       0.26886070       0.64726174       0.47026383 </v>
   <v>       0.32694225       0.74926772       0.43179336 </v>
   <v>       0.35117145       0.79936872       0.43093187 </v>
   <v>       0.39430330       0.82696648       0.46711053 </v>
   <v>       0.41201523       0.80194235       0.50474126 </v>
   <v>       0.38764943       0.75181036       0.50667946 </v>
   <v>       0.24193502       0.66311246       0.50705598 </v>
   <v>       0.19170043       0.63734007       0.50536026 </v>
   <v>       0.16639893       0.59454846       0.46783479 </v>
   <v>       0.19380727       0.57895276       0.43150795 </v>
   <v>       0.24401299       0.60482501       0.43214472 </v>
   <v>       0.41921933       0.88004581       0.46628673 </v>
   <v>       0.11322007       0.56644935       0.46713718 </v>
   <v>       0.08524898       0.56568024       0.52225148 </v>
   <v>       0.62696115       0.28887238       0.47612366 </v>
   <v>       0.70356047       0.36566636       0.47595284 </v>
   <v>       0.62666519       0.36523904       0.47543452 </v>
   <v>       0.58641938       0.35062181       0.51747004 </v>
   <v>       0.56197753       0.37635460       0.51848989 </v>
   <v>       0.57639074       0.41672926       0.47696643 </v>
   <v>       0.61613996       0.43057937       0.43418939 </v>
   <v>       0.64124311       0.40550794       0.43367401 </v>
   <v>       0.64108264       0.26358408       0.51942821 </v>
   <v>       0.61527681       0.21337731       0.52094623 </v>
   <v>       0.57535487       0.18707494       0.47863415 </v>
   <v>       0.56193735       0.21265065       0.43472378 </v>
   <v>       0.58704980       0.26284417       0.43374089 </v>
   <v>       0.72947032       0.35131815       0.43424513 </v>
   <v>       0.77976233       0.37646947       0.43503407 </v>
   <v>       0.80555177       0.41600603       0.47809480 </v>
   <v>       0.77936306       0.43009590       0.51973389 </v>
   <v>       0.72906793       0.40562629       0.51839369 </v>
   <v>       0.46491046       0.98054145       0.47171562 </v>
   <v>       0.43745422       0.95547565       0.41540015 </v>
   <v>       0.41573334       0.90564083       0.41170663 </v>
   <v>       0.49187271       0.03371784       0.47647962 </v>
   <v>       0.54733671       0.13385875       0.48033128 </v>
   <v>       0.53674795       0.10632581       0.42135226 </v>
   <v>       0.01248921       0.51190081       0.47253203 </v>
   <v>       0.03747179       0.50980957       0.41591674 </v>
   <v>       0.08742684       0.53778241       0.41228594 </v>
   <v>       0.95921954       0.48580022       0.47709762 </v>
   <v>       0.85885397       0.44117554       0.47995825 </v>
   <v>       0.88670902       0.45752192       0.42111273 </v>
   <v>       0.50770536       0.50125548       0.47677571 </v>
   <v>       0.55147255       0.44495196       0.47896118 </v>
   <v>       0.53597985       0.45740952       0.42018650 </v>
   <v>       0.44677054       0.90810943       0.52113280 </v>
   <v>       0.49978654       0.05842751       0.53752175 </v>
   <v>       0.52870132       0.10832453       0.54006292 </v>
   <v>       0.93413299       0.46954837       0.53802820 </v>
   <v>       0.88416362       0.44862616       0.54002335 </v>
   <v>       0.52289736       0.49126252       0.53773689 </v>
   <v>       0.54342934       0.46197880       0.53931198 </v>
   <v>       0.50364235       0.56007919       0.30400784 </v>
   <v>       0.56308974       0.58391946       0.37696209 </v>
   <v>       0.43698942       0.97084593       0.30234528 </v>
   <v>       0.41091272       0.00555840       0.37324155 </v>
   <v>       0.02100652       0.49540287       0.30284157 </v>
   <v>       0.98801729       0.43346500       0.37216657 </v>
   <v>       0.50077012       0.04227333       0.65034815 </v>
   <v>       0.43066233       0.00790293       0.59775567 </v>
   <v>       0.94975977       0.48785390       0.65061398 </v>
   <v>       0.98355593       0.45081398       0.60041152 </v>
   <v>       0.50320645       0.48659078       0.65006887 </v>
   <v>       0.54116168       0.55834112       0.60236978 </v>
   <v>       0.52014514       0.56721752       0.36151112 </v>
   <v>       0.45256143       0.52392169       0.52329919 </v>
   <v>       0.32002655       0.67364157       0.47133319 </v>
   <v>       0.65240603       0.33995054       0.47538250 </v>
   <v>       0.51112270       0.05828976       0.41969031 </v>
   <v>       0.42838046       0.97983746       0.35922133 </v>
   <v>       0.93484061       0.47991494       0.41991922 </v>
   <v>       0.01291638       0.47696989       0.35917490 </v>
   <v>       0.51400629       0.48342783       0.41927859 </v>
   <v>       0.46938023       0.95609599       0.52315612 </v>
   <v>       0.47519266       0.03363594       0.60000925 </v>
   <v>       0.03716866       0.54042541       0.52425808 </v>
   <v>       0.95837540       0.47013279       0.60118597 </v>
   <v>       0.52160815       0.51381814       0.60157953 </v>
  </varray>
 </structure>
 <calculation>
  <scstep>
   <time name="dav">  904.09  913.80</time>
   <time name="total">  904.39  914.11</time>
   <energy>
    <i name="alphaZ">     50.49193550 </i>
    <i name="ewald">  59337.69719315 </i>
    <i name="hartreedc"> -74896.35071442 </i>
    <i name="XCdc">   1625.04709365 </i>
    <i name="pawpsdc">  40930.56205331 </i>
    <i name="pawaedc"> -41018.85996895 </i>
    <i name="eentropy">     -0.00000000 </i>
    <i name="bandstr">  -5984.81900204 </i>
    <i name="atom">  19053.07241356 </i>
    <i name="e_fr_energy">   -903.15899625 </i>
    <i name="e_wo_entrp">   -903.15899625 </i>
    <i name="e_0_energy">   -903.15899625 </i>
   </energy>
  </scstep>
  <scstep>
   <time name="dav"> 1006.18 1017.26</time>
   <time name="total"> 1006.18 1017.27</time>
   <energy>
    <i name="e_fr_energy">   -903.64260526 </i>
    <i name="e_wo_entrp">   -903.64260526 </i>
    <i name="e_0_energy">   -903.64260526 </i>
   </energy>
  </scstep>
  <scstep>
   <time name="dav"> 1144.29 1156.63</time>
   <time name="total"> 1144.29 1156.63</time>
   <energy>
    <i name="e_fr_energy">   -903.65537306 </i>
    <i name="e_wo_entrp">   -903.65537306 </i>
    <i name="e_0_energy">   -903.65537306 </i>
   </energy>
  </scstep>
  <scstep>
   <time name="dav">  995.16 1006.01</time>
   <time name="total">  995.16 1006.02</time>
   <energy>
    <i name="e_fr_energy">   -903.65558572 </i>
    <i name="e_wo_entrp">   -903.65558572 </i>
    <i name="e_0_energy">   -903.65558572 </i>
   </energy>
  </scstep>
  <scstep>
   <time name="dav">  905.82  915.57</time>
   <time name="total">  905.83  915.58</time>
   <energy>
    <i name="alphaZ">     50.49193550 </i>
    <i name="ewald">  59337.69719315 </i>
    <i name="hartreedc"> -74896.35071442 </i>
    <i name="XCdc">   1625.04709365 </i>
    <i name="pawpsdc">  40930.56205331 </i>
    <i name="pawaedc"> -41018.85996895 </i>
    <i name="eentropy">     -0.00000000 </i>
    <i name="bandstr">  -5985.31560078 </i>
    <i name="atom">  19053.07241356 </i>
    <i name="e_fr_energy">   -903.65559499 </i>
    <i name="e_wo_entrp">   -903.65559499 </i>
    <i name="e_0_energy">   -903.65559499 </i>
   </energy>
  </scstep>
  <structure>
   <crystal>
    <varray name="basis" >
     <v>      31.95753800      -0.04312807       0.00000000 </v>
     <v>     -16.01592974      27.72499787       0.00000000 </v>
     <v>       0.00000000       0.00000000      20.00000000 </v>
    </varray>
    <i name="volume">  17706.63873631 </i>
    <varray name="rec_basis" >
     <v>       0.03131594       0.01809031       0.00000000 </v>
     <v>       0.00004871       0.03609667       0.00000000 </v>
     <v>       0.00000000       0.00000000       0.05000000 </v>
    </varray>
   </crystal>
   <varray name="positions" >
    <v>       0.40200646       0.70024386       0.40375328 </v>
    <v>       0.44868172       0.65845246       0.40296598 </v>
    <v>       0.29733951       0.59151082       0.53576011 </v>
    <v>       0.34247390       0.54806865       0.53219877 </v>
    <v>       0.45972629       0.59929167       0.36791307 </v>
    <v>       0.40611312       0.54305340       0.56589547 </v>
    <v>       0.40195098       0.73326413       0.53644568 </v>
    <v>       0.26433541       0.59205302       0.40331338 </v>
    <v>       0.33581819       0.81734797       0.40203186 </v>
    <v>       0.29374034       0.72880049       0.40308315 </v>
    <v>       0.44566369       0.82193839       0.53273399 </v>
    <v>       0.26069863       0.69602884       0.53669634 </v>
    <v>       0.17183862       0.65105065       0.53339390 </v>
    <v>       0.17558954       0.54557576       0.40267149 </v>
    <v>       0.39619551       0.88737349       0.36637120 </v>
    <v>       0.10289953       0.58616966       0.56745427 </v>
    <v>       0.62641653       0.19416344       0.55510398 </v>
    <v>       0.67219882       0.28365748       0.55214180 </v>
    <v>       0.57595122       0.28232649       0.40011460 </v>
    <v>       0.53087564       0.19283192       0.40175849 </v>
    <v>       0.57479220       0.31922230       0.54967214 </v>
    <v>       0.53100817       0.36486189       0.55172780 </v>
    <v>       0.70981491       0.32031266       0.40129472 </v>
    <v>       0.79948802       0.36484170       0.40264651 </v>
    <v>       0.79874291       0.46085340       0.55326164 </v>
    <v>       0.70911081       0.41704122       0.55060287 </v>
    <v>       0.67243313       0.41696817       0.40097577 </v>
    <v>       0.62801354       0.46199941       0.40187436 </v>
    <v>       0.55064761       0.12438401       0.37334196 </v>
    <v>       0.10565667       0.53680238       0.36675701 </v>
    <v>       0.86885415       0.45289240       0.37281081 </v>
    <v>       0.54097696       0.44476356       0.37166725 </v>
    <v>       0.53465646       0.12697428       0.58776256 </v>
    <v>       0.45007019       0.89060945       0.56614252 </v>
    <v>       0.86525799       0.43637190       0.58766356 </v>
    <v>       0.55494811       0.45449664       0.58695219 </v>
    <v>       0.38912037       0.66700620       0.43225432 </v>
    <v>       0.41511727       0.64292138       0.43152863 </v>
    <v>       0.39942335       0.59972749       0.46739295 </v>
    <v>       0.35632835       0.58179097       0.50450419 </v>
    <v>       0.33044011       0.60601618       0.50634741 </v>
    <v>       0.42771643       0.57495324       0.46678688 </v>
    <v>       0.48214757       0.52885108       0.47243859 </v>
    <v>       0.48565464       0.55726737       0.41674650 </v>
    <v>       0.45767336       0.57912814       0.41289021 </v>
    <v>       0.42743554       0.54676881       0.52125034 </v>
    <v>       0.34643017       0.64901150       0.47005536 </v>
    <v>       0.34475831       0.72470391       0.47001048 </v>
    <v>       0.26886070       0.64726174       0.47026383 </v>
    <v>       0.32694225       0.74926772       0.43179336 </v>
    <v>       0.35117145       0.79936872       0.43093187 </v>
    <v>       0.39430330       0.82696648       0.46711053 </v>
    <v>       0.41201523       0.80194235       0.50474126 </v>
    <v>       0.38764943       0.75181036       0.50667946 </v>
    <v>       0.24193502       0.66311246       0.50705598 </v>
    <v>       0.19170043       0.63734007       0.50536026 </v>
    <v>       0.16639893       0.59454846       0.46783479 </v>
    <v>       0.19380727       0.57895276       0.43150795 </v>
    <v>       0.24401299       0.60482501       0.43214472 </v>
    <v>       0.41921933       0.88004581       0.46628673 </v>
    <v>       0.11322007       0.56644935       0.46713718 </v>
    <v>       0.08524898       0.56568024       0.52225148 </v>
    <v>       0.62696115       0.28887238       0.47612366 </v>
    <v>       0.70356047       0.36566636       0.47595284 </v>
    <v>       0.62666519       0.36523904       0.47543452 </v>
    <v>       0.58641938       0.35062181       0.51747004 </v>
    <v>       0.56197753       0.37635460       0.51848989 </v>
    <v>       0.57639074       0.41672926       0.47696643 </v>
    <v>       0.61613996       0.43057937       0.43418939 </v>
    <v>       0.64124311       0.40550794       0.43367401 </v>
    <v>       0.64108264       0.26358408       0.51942821 </v>
    <v>       0.61527681       0.21337731       0.52094623 </v>
    <v>       0.57535487       0.18707494       0.47863415 </v>
    <v>       0.56193735       0.21265065       0.43472378 </v>
    <v>       0.58704980       0.26284417       0.43374089 </v>
    <v>       0.72947032       0.35131815       0.43424513 </v>
    <v>       0.77976233       0.37646947       0.43503407 </v>
    <v>       0.80555177       0.41600603       0.47809480 </v>
    <v>       0.77936306       0.43009590       0.51973389 </v>
    <v>       0.72906793       0.40562629       0.51839369 </v>
    <v>       0.46491046       0.98054145       0.47171562 </v>
    <v>       0.43745422       0.95547565       0.41540015 </v>
    <v>       0.41573334       0.90564083       0.41170663 </v>
    <v>       0.49187271       0.03371784       0.47647962 </v>
    <v>       0.54733671       0.13385875       0.48033128 </v>
    <v>       0.53674795       0.10632581       0.42135226 </v>
    <v>       0.01248921       0.51190081       0.47253203 </v>
    <v>       0.03747179       0.50980957       0.41591674 </v>
    <v>       0.08742684       0.53778241       0.41228594 </v>
    <v>       0.95921954       0.48580022       0.47709762 </v>
    <v>       0.85885397       0.44117554       0.47995825 </v>
    <v>       0.88670902       0.45752192       0.42111273 </v>
    <v>       0.50770536       0.50125548       0.47677571 </v>
    <v>       0.55147255       0.44495196       0.47896118 </v>
    <v>       0.53597985       0.45740952       0.42018650 </v>
    <v>       0.44677054       0.90810943       0.52113280 </v>
    <v>       0.49978654       0.05842751       0.53752175 </v>
    <v>       0.52870132       0.10832453       0.54006292 </v>
    <v>       0.93413299       0.46954837       0.53802820 </v>
    <v>       0.88416362       0.44862616       0.54002335 </v>
    <v>       0.52289736       0.49126252       0.53773689 </v>
    <v>       0.54342934       0.46197880       0.53931198 </v>
    <v>       0.50364235       0.56007919       0.30400784 </v>
    <v>       0.56308974       0.58391946       0.37696209 </v>
    <v>       0.43698942       0.97084593       0.30234528 </v>
    <v>       0.41091272       0.00555840       0.37324155 </v>
    <v>       0.02100652       0.49540287       0.30284157 </v>
    <v>       0.98801729       0.43346500       0.37216657 </v>
    <v>       0.50077012       0.04227333       0.65034815 </v>
    <v>       0.43066233       0.00790293       0.59775567 </v>
    <v>       0.94975977       0.48785390       0.65061398 </v>
    <v>       0.98355593       0.45081398       0.60041152 </v>
    <v>       0.50320645       0.48659078       0.65006887 </v>
    <v>       0.54116168       0.55834112       0.60236978 </v>
    <v>       0.52014514       0.56721752       0.36151112 </v>
    <v>       0.45256143       0.52392169       0.52329919 </v>
    <v>       0.32002655       0.67364157       0.47133319 </v>
    <v>       0.65240603       0.33995054       0.47538250 </v>
    <v>       0.51112270       0.05828976       0.41969031 </v>
    <v>       0.42838046       0.97983746       0.35922133 </v>
    <v>       0.93484061       0.47991494       0.41991922 </v>
    <v>       0.01291638       0.47696989       0.35917490 </v>
    <v>       0.51400629       0.48342783       0.41927859 </v>
    <v>       0.46938023       0.95609599       0.52315612 </v>
    <v>       0.47519266       0.03363594       0.60000925 </v>
    <v>       0.03716866       0.54042541       0.52425808 </v>
    <v>       0.95837540       0.47013279       0.60118597 </v>
    <v>       0.52160815       0.51381814       0.60157953 </v>
   </varray>
  </structure>
  <varray name="forces" >
   <v>      -0.00053387       0.00195282      -0.00144975 </v>
   <v>       0.00079410       0.00173183      -0.00276621 </v>
   <v>      -0.00033310       0.00004510      -0.00006362 </v>
   <v>       0.00038224      -0.00058151      -0.00085672 </v>
   <v>       0.00073919       0.00107388      -0.00051147 </v>
   <v>      -0.00014865       0.00116408      -0.00072616 </v>
   <v>       0.00030584       0.00025837      -0.00008603 </v>
   <v>      -0.00065855       0.00079096       0.00097221 </v>
   <v>      -0.00083819      -0.00020672      -0.00127460 </v>
   <v>       0.00033999      -0.00033054      -0.00032379 </v>
   <v>      -0.00024702       0.00080800      -0.00044822 </v>
   <v>      -0.00035127       0.00157558       0.00087956 </v>
   <v>      -0.00163207       0.00038763       0.00011767 </v>
   <v>       0.00002546       0.00055374      -0.00071094 </v>
   <v>       0.00010968       0.00068382      -0.00031920 </v>
   <v>       0.00123441      -0.00196924      -0.00094927 </v>
   <v>      -0.00084041      -0.00036800      -0.00073083 </v>
   <v>       0.00019683      -0.00062627      -0.00021715 </v>
   <v>      -0.00091823       0.00039471       0.00055796 </v>
   <v>      -0.00086846       0.00037313       0.00066775 </v>
   <v>      -0.00034632       0.00123623      -0.00013060 </v>
   <v>       0.00195059       0.00107159      -0.00092872 </v>
   <v>       0.00040848      -0.00063617      -0.00000756 </v>
   <v>       0.00004274       0.00018409      -0.00059258 </v>
   <v>       0.00063254       0.00002688      -0.00082807 </v>
   <v>       0.00043471       0.00044608       0.00057094 </v>
   <v>       0.00006171       0.00069629       0.00079045 </v>
   <v>       0.00107690       0.00062699      -0.00027873 </v>
   <v>      -0.00293867      -0.00121065       0.00321705 </v>
   <v>       0.00087967      -0.00007149      -0.00192250 </v>
   <v>       0.00138386      -0.00201774      -0.00106595 </v>
   <v>       0.00031872       0.00051237      -0.00110595 </v>
   <v>      -0.00179864       0.00129624       0.00294409 </v>
   <v>      -0.00143214      -0.00024715       0.00027497 </v>
   <v>      -0.00015882       0.00038517       0.00062163 </v>
   <v>      -0.00110984       0.00067124      -0.00136955 </v>
   <v>      -0.00055131       0.00025166      -0.00012591 </v>
   <v>      -0.00120025       0.00044197      -0.00013804 </v>
   <v>       0.00541248      -0.00155824      -0.00091180 </v>
   <v>      -0.00073487       0.00214524      -0.00053547 </v>
   <v>       0.00090547       0.00001318      -0.00143264 </v>
   <v>      -0.00374995       0.00136138       0.00090737 </v>
   <v>       0.00334329      -0.00318098       0.00106085 </v>
   <v>      -0.00072987       0.00007027      -0.00043737 </v>
   <v>       0.00066066      -0.00049935       0.00061473 </v>
   <v>       0.00075927      -0.00017823      -0.00074524 </v>
   <v>      -0.00138831       0.00112053      -0.00123210 </v>
   <v>       0.00050853      -0.00224315      -0.00052843 </v>
   <v>       0.00260890       0.00058689      -0.00062006 </v>
   <v>      -0.00096795       0.00061649      -0.00021894 </v>
   <v>      -0.00144218      -0.00185911      -0.00083735 </v>
   <v>      -0.00098807       0.00496289       0.00025542 </v>
   <v>      -0.00041297      -0.00166123       0.00072761 </v>
   <v>       0.00141806       0.00087103       0.00065571 </v>
   <v>      -0.00053118       0.00006439      -0.00031338 </v>
   <v>       0.00290718       0.00022346       0.00048712 </v>
   <v>      -0.00282237      -0.00381620      -0.00088863 </v>
   <v>       0.00389023      -0.00017255      -0.00187325 </v>
   <v>      -0.00011444      -0.00256176      -0.00069067 </v>
   <v>      -0.00088661      -0.00164390       0.00062476 </v>
   <v>       0.00097994       0.00218527       0.00249115 </v>
   <v>      -0.00064382      -0.00077557       0.00063592 </v>
   <v>       0.00149267      -0.00197195      -0.00011747 </v>
   <v>       0.00041802       0.00026711      -0.00029410 </v>
   <v>       0.00143358       0.00029617       0.00016289 </v>
   <v>      -0.00195390      -0.00033897       0.00118767 </v>
   <v>       0.00290908      -0.00097787       0.00183454 </v>
   <v>       0.00022813       0.00127248      -0.00039591 </v>
   <v>       0.00197591       0.00032075      -0.00162427 </v>
   <v>       0.00024380       0.00206284      -0.00034850 </v>
   <v>       0.00158066      -0.00104516       0.00010037 </v>
   <v>      -0.00033957       0.00137645       0.00202146 </v>
   <v>      -0.00134644      -0.00276256       0.00180117 </v>
   <v>      -0.00216419       0.00249961      -0.00122454 </v>
   <v>      -0.00114478      -0.00092902       0.00030261 </v>
   <v>       0.00444503      -0.00063227      -0.00228315 </v>
   <v>      -0.00133835      -0.00101422      -0.00212583 </v>
   <v>       0.00468929       0.00126912       0.00053045 </v>
   <v>      -0.00059686      -0.00117289       0.00169764 </v>
   <v>       0.00168449       0.00321126       0.00071703 </v>
   <v>      -0.00122947       0.00343876       0.00306821 </v>
   <v>      -0.00085281       0.00101823      -0.00065160 </v>
   <v>      -0.00084605      -0.00118942       0.00129648 </v>
   <v>      -0.00119845      -0.00492242       0.00416809 </v>
   <v>      -0.00211753       0.00080046       0.00039844 </v>
   <v>      -0.00144390      -0.00084627      -0.00149692 </v>
   <v>      -0.00407769      -0.00283057       0.00096690 </v>
   <v>       0.00177305       0.00046280      -0.00094662 </v>
   <v>      -0.00290691      -0.00400339      -0.00123211 </v>
   <v>       0.00659669       0.00382010      -0.00255223 </v>
   <v>      -0.00585951      -0.00387649      -0.00344061 </v>
   <v>       0.00404865       0.00047243      -0.00124936 </v>
   <v>      -0.00297771       0.00039464       0.00073344 </v>
   <v>       0.00241100      -0.00038835       0.00219148 </v>
   <v>      -0.00098797       0.00236340      -0.00251723 </v>
   <v>      -0.00090322       0.00091181       0.00185128 </v>
   <v>       0.00015950       0.00199521      -0.00194807 </v>
   <v>      -0.00115204      -0.00139286       0.00102673 </v>
   <v>      -0.00135961      -0.00247960       0.00142085 </v>
   <v>       0.00241741       0.00200612       0.00091514 </v>
   <v>      -0.00128698      -0.00095290       0.00156962 </v>
   <v>      -0.00182990      -0.00014158       0.00254394 </v>
   <v>      -0.00289610       0.00022901      -0.00009819 </v>
   <v>       0.00266798      -0.00067994      -0.00167811 </v>
   <v>       0.00078224       0.00105184       0.00314054 </v>
   <v>       0.00332164      -0.00051246       0.00043031 </v>
   <v>      -0.00152078      -0.00127127       0.00135005 </v>
   <v>       0.00014479       0.00330544      -0.00260985 </v>
   <v>       0.00391532       0.00020360       0.00345076 </v>
   <v>      -0.00010519       0.00321118       0.00122793 </v>
   <v>      -0.00164919      -0.00176023      -0.00239490 </v>
   <v>       0.00103059      -0.00343308       0.00080496 </v>
   <v>      -0.00056925       0.00248638       0.00014651 </v>
   <v>      -0.00023455      -0.00071210       0.00185879 </v>
   <v>       0.00142245       0.00017749      -0.00265616 </v>
   <v>      -0.00161890       0.00127874      -0.00000831 </v>
   <v>      -0.00049736       0.00048468      -0.00182632 </v>
   <v>      -0.00259783       0.00149486      -0.00116440 </v>
   <v>       0.00084606       0.00554592       0.00073567 </v>
   <v>       0.00046737       0.00181572      -0.00053825 </v>
   <v>      -0.00340152      -0.00176091      -0.00093876 </v>
   <v>       0.00032617      -0.00184723      -0.00003775 </v>
   <v>       0.00016349       0.00017083      -0.00139007 </v>
   <v>      -0.00380250      -0.00306655       0.00151514 </v>
   <v>      -0.00480184      -0.00204027       0.00132842 </v>
   <v>       0.00480879      -0.00063011      -0.00067678 </v>
   <v>       0.00104267      -0.00116769       0.00614915 </v>
   <v>       0.00176901      -0.00441060      -0.00305977 </v>
  </varray>
  <varray name="stress" >
   <v>      -0.00873819      -0.00283536       0.00448442 </v>
   <v>      -0.00283536      -0.00661646       0.01119443 </v>
   <v>       0.00448442       0.01119443      -0.15981053 </v>
  </varray>
  <energy>
   <i name="e_fr_energy">   -906.49022684 </i>
   <i name="e_wo_entrp">   -906.49022684 </i>
   <i name="e_0_energy">     -0.00000000 </i>
  </energy>
  <time name="totalsc"> 6004.70 6073.00</time>
  <eigenvalues>
   <array>
    <dimension dim="1">band</dimension>
    <dimension dim="2">kpoint</dimension>
    <dimension dim="3">spin</dimension>
    <field>eigene</field>
    <field>occ</field>
    <set>
     <set comment="spin 1">
      <set comment="kpoint 1">
       <r>  -30.6941    1.0000 </r>
       <r>  -30.6893    1.0000 </r>
       <r>  -30.6805    1.0000 </r>
       <r>  -30.6733    1.0000 </r>
       <r>  -30.6726    1.0000 </r>
       <r>  -30.6653    1.0000 </r>
       <r>  -26.3362    1.0000 </r>
       <r>  -26.3325    1.0000 </r>
       <r>  -26.3215    1.0000 </r>
       <r>  -26.3115    1.0000 </r>
       <r>  -26.3107    1.0000 </r>
       <r>  -26.3028    1.0000 </r>
       <r>  -24.8441    1.0000 </r>
       <r>  -24.6483    1.0000 </r>
       <r>  -24.4187    1.0000 </r>
       <r>  -24.4158    1.0000 </r>
       <r>  -24.4080    1.0000 </r>
       <r>  -23.9225    1.0000 </r>
       <r>  -23.9198    1.0000 </r>
       <r>  -23.9124    1.0000 </r>
       <r>  -21.9415    1.0000 </r>
       <r>  -21.9373    1.0000 </r>
       <r>  -21.8513    1.0000 </r>
       <r>  -21.8472    1.0000 </r>
       <r>  -21.6363    1.0000 </r>
       <r>  -21.5554    1.0000 </r>
       <r>  -21.1527    1.0000 </r>
       <r>  -21.1458    1.0000 </r>
       <r>  -21.0563    1.0000 </r>
       <r>  -21.0001    1.0000 </r>
       <r>  -20.9941    1.0000 </r>
       <r>  -20.9581    1.0000 </r>
       <r>  -20.6477    1.0000 </r>
       <r>  -20.6421    1.0000 </r>
       <r>  -20.3552    1.0000 </r>
       <r>  -20.1678    1.0000 </r>
       <r>  -20.1629    1.0000 </r>
       <r>  -19.7535    1.0000 </r>
       <r>  -19.2103    1.0000 </r>
       <r>  -19.2078    1.0000 </r>
       <r>  -18.9820    1.0000 </r>
       <r>  -18.9816    1.0000 </r>
       <r>  -18.8983    1.0000 </r>
       <r>  -18.8356    1.0000 </r>
       <r>  -18.8333    1.0000 </r>
       <r>  -18.8195    1.0000 </r>
       <r>  -18.5665    1.0000 </r>
       <r>  -18.5642    1.0000 </r>
       <r>  -18.4096    1.0000 </r>
       <r>  -17.9694    1.0000 </r>
       <r>  -17.9646    1.0000 </r>
       <r>  -17.7833    1.0000 </r>
       <r>  -17.7127    1.0000 </r>
       <r>  -17.5273    1.0000 </r>
       <r>  -17.5213    1.0000 </r>
       <r>  -17.4338    1.0000 </r>
       <r>  -16.8524    1.0000 </r>
       <r>  -16.8471    1.0000 </r>
       <r>  -16.3472    1.0000 </r>
       <r>  -16.2313    1.0000 </r>
       <r>  -16.2279    1.0000 </r>
       <r>  -15.9725    1.0000 </r>
       <r>  -15.9484    1.0000 </r>
       <r>  -15.9421    1.0000 </r>
       <r>  -15.8120    1.0000 </r>
       <r>  -15.8096    1.0000 </r>
       <r>  -15.4478    1.0000 </r>
       <r>  -15.3476    1.0000 </r>
       <r>  -15.3378    1.0000 </r>
       <r>  -15.3327    1.0000 </r>
       <r>  -15.2104    1.0000 </r>
       <r>  -15.2078    1.0000 </r>
       <r>  -15.1887    1.0000 </r>
       <r>  -14.9197    1.0000 </r>
       <r>  -14.6510    1.0000 </r>
       <r>  -14.6471    1.0000 </r>
       <r>  -14.5995    1.0000 </r>
       <r>  -14.5949    1.0000 </r>
       <r>  -14.3606    1.0000 </r>
       <r>  -14.2397    1.0000 </r>
       <r>  -13.8216    1.0000 </r>
       <r>  -13.8187    1.0000 </r>
       <r>  -13.7708    1.0000 </r>
       <r>  -13.6857    1.0000 </r>
       <r>  -13.6850    1.0000 </r>
       <r>  -13.5543    1.0000 </r>
       <r>  -13.5358    1.0000 </r>
       <r>  -13.5335    1.0000 </r>
       <r>  -13.4781    1.0000 </r>
       <r>  -13.4726    1.0000 </r>
       <r>  -13.3666    1.0000 </r>
       <r>  -13.2407    1.0000 </r>
       <r>  -13.2340    1.0000 </r>
       <r>  -13.1635    1.0000 </r>
       <r>  -13.1430    1.0000 </r>
       <r>  -13.1343    1.0000 </r>
       <r>  -13.0542    1.0000 </r>
       <r>  -13.0262    1.0000 </r>
       <r>  -13.0192    1.0000 </r>
       <r>  -12.6295    1.0000 </r>
       <r>  -12.5273    1.0000 </r>
       <r>  -12.5192    1.0000 </r>
       <r>  -12.5028    1.0000 </r>
       <r>  -12.4831    1.0000 </r>
       <r>  -12.4773    1.0000 </r>
       <r>  -12.4578    1.0000 </r>
       <r>  -12.3641    1.0000 </r>
       <r>  -12.3036    1.0000 </r>
       <r>  -12.3001    1.0000 </r>
       <r>  -12.1460    1.0000 </r>
       <r>  -12.1080    1.0000 </r>
       <r>  -12.1044    1.0000 </r>
       <r>  -12.0727    1.0000 </r>
       <r>  -12.0691    1.0000 </r>
       <r>  -12.0672    1.0000 </r>
       <r>  -11.8748    1.0000 </r>
       <r>  -11.8680    1.0000 </r>
       <r>  -11.7893    1.0000 </r>
       <r>  -11.5729    1.0000 </r>
       <r>  -11.4721    1.0000 </r>
       <r>  -11.4708    1.0000 </r>
       <r>  -11.3974    1.0000 </r>
       <r>  -11.3858    1.0000 </r>
       <r>  -11.3811    1.0000 </r>
       <r>  -11.2870    1.0000 </r>
       <r>  -11.2834    1.0000 </r>
       <r>  -11.0595    1.0000 </r>
       <r>  -10.9438    1.0000 </r>
       <r>  -10.9425    1.0000 </r>
       <r>  -10.8897    1.0000 </r>
       <r>  -10.7981    1.0000 </r>
       <r>  -10.7877    1.0000 </r>
       <r>  -10.7824    1.0000 </r>
       <r>  -10.7230    1.0000 </r>
       <r>  -10.6801    1.0000 </r>
       <r>  -10.6780    1.0000 </r>
       <r>  -10.5901    1.0000 </r>
       <r>  -10.5888    1.0000 </r>
       <r>  -10.5783    1.0000 </r>
       <r>  -10.5321    1.0000 </r>
       <r>  -10.5301    1.0000 </r>
       <r>  -10.3177    1.0000 </r>
       <r>  -10.2697    1.0000 </r>
       <r>  -10.2659    1.0000 </r>
       <r>  -10.1812    1.0000 </r>
       <r>  -10.1595    1.0000 </r>
       <r>  -10.1490    1.0000 </r>
       <r>  -10.1192    1.0000 </r>
       <r>  -10.0113    1.0000 </r>
       <r>  -10.0061    1.0000 </r>
       <r>   -9.9560    1.0000 </r>
       <r>   -9.7965    1.0000 </r>
       <r>   -9.7505    1.0000 </r>
       <r>   -9.7472    1.0000 </r>
       <r>   -9.6006    1.0000 </r>
       <r>   -9.5989    1.0000 </r>
       <r>   -9.5979    1.0000 </r>
       <r>   -9.5577    1.0000 </r>
       <r>   -9.4653    1.0000 </r>
       <r>   -9.4610    1.0000 </r>
       <r>   -9.3624    1.0000 </r>
       <r>   -9.2809    1.0000 </r>
       <r>   -9.2793    1.0000 </r>
       <r>   -9.1366    1.0000 </r>
       <r>   -9.1327    1.0000 </r>
       <r>   -8.8245    1.0000 </r>
       <r>   -8.7501    1.0000 </r>
       <r>   -8.5881    1.0000 </r>
       <r>   -8.5816    1.0000 </r>
       <r>   -8.5498    1.0000 </r>
       <r>   -8.5426    1.0000 </r>
       <r>   -8.4166    1.0000 </r>
       <r>   -8.1448    1.0000 </r>
       <r>   -8.1441    1.0000 </r>
       <r>   -8.0588    1.0000 </r>
       <r>   -7.9854    1.0000 </r>
       <r>   -7.9809    1.0000 </r>
       <r>   -7.9121    1.0000 </r>
       <r>   -7.8151    1.0000 </r>
       <r>   -7.7850    1.0000 </r>
       <r>   -7.7757    1.0000 </r>
       <r>   -7.5646    1.0000 </r>
       <r>   -7.5600    1.0000 </r>
       <r>   -7.5274    1.0000 </r>
       <r>   -7.5031    1.0000 </r>
       <r>   -7.4689    1.0000 </r>
       <r>   -7.4641    1.0000 </r>
       <r>   -7.4137    1.0000 </r>
       <r>   -7.4102    1.0000 </r>
       <r>   -7.4024    1.0000 </r>
       <r>   -7.1524    1.0000 </r>
       <r>   -7.1466    1.0000 </r>
       <r>   -7.1396    1.0000 </r>
       <r>   -7.1338    1.0000 </r>
       <r>   -7.1293    1.0000 </r>
       <r>   -7.1097    1.0000 </r>
       <r>   -6.9669    1.0000 </r>
       <r>   -6.8580    1.0000 </r>
       <r>   -6.8175    1.0000 </r>
       <r>   -6.7547    1.0000 </r>
       <r>   -6.7544    1.0000 </r>
       <r>   -6.6920    1.0000 </r>
       <r>   -6.6900    1.0000 </r>
       <r>   -6.6020    1.0000 </r>
       <r>   -6.5997    1.0000 </r>
       <r>   -6.5035    1.0000 </r>
       <r>   -6.4963    1.0000 </r>
       <r>   -6.4801    1.0000 </r>
       <r>   -6.4716    1.0000 </r>
       <r>   -6.4669    1.0000 </r>
       <r>   -6.4513    1.0000 </r>
       <r>   -6.3656    1.0000 </r>
       <r>   -6.3600    1.0000 </r>
       <r>   -6.2982    1.0000 </r>
       <r>   -6.2003    1.0000 </r>
       <r>   -6.1989    1.0000 </r>
       <r>   -6.1929    1.0000 </r>
       <r>   -6.0212    1.0000 </r>
       <r>   -6.0115    1.0000 </r>
       <r>   -5.0192    1.0000 </r>
       <r>   -4.8602    1.0000 </r>
       <r>   -3.3425    0.0000 </r>
       <r>   -3.3375    0.0000 </r>
       <r>   -3.2697    0.0000 </r>
       <r>   -3.1109    0.0000 </r>
       <r>   -3.1020    0.0000 </r>
       <r>   -3.0972    0.0000 </r>
       <r>   -2.8341    0.0000 </r>
       <r>   -2.8301    0.0000 </r>
       <r>   -2.6497    0.0000 </r>
       <r>   -2.2105    0.0000 </r>
       <r>   -2.2052    0.0000 </r>
       <r>   -2.1674    0.0000 </r>
       <r>   -2.0606    0.0000 </r>
       <r>   -2.0513    0.0000 </r>
       <r>   -2.0163    0.0000 </r>
       <r>   -1.9460    0.0000 </r>
       <r>   -1.9423    0.0000 </r>
       <r>   -1.9367    0.0000 </r>
       <r>   -1.7985    0.0000 </r>
       <r>   -1.5044    0.0000 </r>
       <r>   -1.4881    0.0000 </r>
       <r>   -1.4834    0.0000 </r>
       <r>   -1.4129    0.0000 </r>
       <r>   -1.4060    0.0000 </r>
       <r>   -1.3808    0.0000 </r>
       <r>   -1.3740    0.0000 </r>
       <r>   -0.6886    0.0000 </r>
       <r>   -0.6753    0.0000 </r>
       <r>   -0.6513    0.0000 </r>
       <r>   -0.6017    0.0000 </r>
       <r>   -0.5478    0.0000 </r>
       <r>   -0.2815    0.0000 </r>
       <r>   -0.2636    0.0000 </r>
       <r>   -0.2610    0.0000 </r>
       <r>   -0.1637    0.0000 </r>
       <r>   -0.1614    0.0000 </r>
       <r>   -0.0889    0.0000 </r>
       <r>    0.0349    0.0000 </r>
       <r>    0.0698    0.0000 </r>
       <r>    0.0718    0.0000 </r>
       <r>    0.1556    0.0000 </r>
       <r>    0.1576    0.0000 </r>
       <r>    0.1951    0.0000 </r>
       <r>    0.2542    0.0000 </r>
       <r>    0.2549    0.0000 </r>
       <r>    0.2997    0.0000 </r>
       <r>    0.3022    0.0000 </r>
       <r>    0.4897    0.0000 </r>
       <r>    0.5079    0.0000 </r>
       <r>    0.5101    0.0000 </r>
       <r>    0.5118    0.0000 </r>
       <r>    0.5406    0.0000 </r>
       <r>    0.5837    0.0000 </r>
       <r>    0.6178    0.0000 </r>
       <r>    0.6204    0.0000 </r>
       <r>    0.6239    0.0000 </r>
       <r>    0.6679    0.0000 </r>
       <r>    0.6987    0.0000 </r>
       <r>    0.7024    0.0000 </r>
       <r>    0.7173    0.0000 </r>
       <r>    0.7192    0.0000 </r>
       <r>    0.7632    0.0000 </r>
       <r>    0.7650    0.0000 </r>
       <r>    0.7871    0.0000 </r>
       <r>    0.8422    0.0000 </r>
       <r>    0.8930    0.0000 </r>
       <r>    0.9241    0.0000 </r>
      </set>
      <set comment="kpoint 2">
       <r>  -30.6941    1.0000 </r>
       <r>  -30.6893    1.0000 </r>
       <r>  -30.6805    1.0000 </r>
       <r>  -30.6733    1.0000 </r>
       <r>  -30.6726    1.0000 </r>
       <r>  -30.6653    1.0000 </r>
       <r>  -26.3362    1.0000 </r>
       <r>  -26.3325    1.0000 </r>
       <r>  -26.3215    1.0000 </r>
       <r>  -26.3115    1.0000 </r>
       <r>  -26.3107    1.0000 </r>
       <r>  -26.3028    1.0000 </r>
       <r>  -24.8441    1.0000 </r>
       <r>  -24.6483    1.0000 </r>
       <r>  -24.4187    1.0000 </r>
       <r>  -24.4158    1.0000 </r>
[...]
       <r>   -23.9252    10.4575    35.2128 </r>
       <r>   -23.8092     0.0000    40.0000 </r>
       <r>   -23.6933     0.0000    40.0000 </r>
       <r>   -23.5773     0.0000    40.0000 </r>
       <r>   -23.4613     0.0000    40.0000 </r>
       <r>   -23.3453     0.0000    40.0000 </r>
       <r>   -23.2294     0.0000    40.0000 </r>
       <r>   -23.1134     0.0000    40.0000 </r>
       <r>   -22.9974     0.0000    40.0000 </r>
       <r>   -22.8814     0.0000    40.0000 </r>
       <r>   -22.7654     0.0000    40.0000 </r>
       <r>   -22.6495     0.0000    40.0000 </r>
       <r>   -22.5335     0.0000    40.0000 </r>
       <r>   -22.4175     0.0000    40.0000 </r>
       <r>   -22.3015     0.0000    40.0000 </r>
       <r>   -22.1856     0.0000    40.0000 </r>
       <r>   -22.0696     0.0000    40.0000 </r>
       <r>   -21.9536     0.8348    40.0968 </r>
       <r>   -21.8376    32.7757    47.8013 </r>
       <r>   -21.7216     0.0000    48.0000 </r>
       <r>   -21.6057    17.2440    49.9999 </r>
       <r>   -21.4897    17.2446    52.0000 </r>
       <r>   -21.3737     0.0000    52.0000 </r>
       <r>   -21.2577     0.0000    52.0000 </r>
       <r>   -21.1417    19.7598    54.2917 </r>
       <r>   -21.0258    15.2332    58.0001 </r>
       <r>   -20.9098    29.8906    64.0000 </r>
       <r>   -20.7938     0.0000    64.0000 </r>
       <r>   -20.6778     0.0000    64.0000 </r>
       <r>   -20.5619    12.3758    67.6353 </r>
       <r>   -20.4459    10.5308    69.2213 </r>
       <r>   -20.3299     4.8858    70.0000 </r>
       <r>   -20.2139     0.0000    70.0000 </r>
       <r>   -20.0979    22.2938    72.5856 </r>
       <r>   -19.9820     6.9136    73.5685 </r>
       <r>   -19.8660     9.0983    74.9885 </r>
       <r>   -19.7500     6.4016    75.9425 </r>
       <r>   -19.6340     0.0000    76.0000 </r>
       <r>   -19.5180     0.0000    76.0000 </r>
       <r>   -19.4021     0.0000    76.0000 </r>
       <r>   -19.2861     0.0000    76.0000 </r>
       <r>   -19.1701    22.4339    78.6018 </r>
       <r>   -19.0541     9.1971    80.0000 </r>
       <r>   -18.9382    34.4892    84.0000 </r>
       <r>   -18.8222    49.9785    89.7964 </r>
       <r>   -18.7062     9.6346    93.1174 </r>
       <r>   -18.5902     3.3991    93.7276 </r>
       <r>   -18.4742     0.0000    96.0000 </r>
       <r>   -18.3583     3.4244    96.3972 </r>
       <r>   -18.2423     2.8068    96.8922 </r>
       <r>   -18.1263     8.7218    98.1115 </r>
       <r>   -18.0103     7.3561    99.3865 </r>
       <r>   -17.8943    19.2565   102.0000 </r>
       <r>   -17.7784     4.0757   102.4727 </r>
       <r>   -17.6624    17.2446   106.0000 </r>
       <r>   -17.5464     0.0185   106.0021 </r>
       <r>   -17.4304    25.6427   111.9073 </r>
       <r>   -17.3145     0.0000   112.0000 </r>
       <r>   -17.1985     0.0000   112.0000 </r>
       <r>   -17.0825     0.0000   112.0000 </r>
       <r>   -16.9665     0.0000   112.0000 </r>
       <r>   -16.8505     7.9436   112.9213 </r>
       <r>   -16.7346     4.2105   115.0217 </r>
       <r>   -16.6186     5.7490   116.2334 </r>
       <r>   -16.5026     5.1936   117.2357 </r>
       <r>   -16.3866     2.8080   117.6923 </r>
       <r>   -16.2707     0.8622   118.0000 </r>
       <r>   -16.1547    21.5593   120.5004 </r>
       <r>   -16.0387     8.1936   121.6170 </r>
       <r>   -15.9227    41.0732   127.6303 </r>
       <r>   -15.8067    18.9477   130.1975 </r>
       <r>   -15.6908     0.0000   132.0000 </r>
       <r>   -15.5748     0.0000   132.0000 </r>
       <r>   -15.4588     0.1964   132.0228 </r>
       <r>   -15.3428    42.4702   138.0256 </r>
       <r>   -15.2268    15.4694   141.7941 </r>
       <r>   -15.1109    16.4557   144.5752 </r>
       <r>   -14.9949    11.8120   146.1699 </r>
       <r>   -14.8789     7.7601   148.0000 </r>
       <r>   -14.7629     0.0000   148.0000 </r>
       <r>   -14.6470    28.9434   151.3568 </r>
       <r>   -14.5310    34.4892   156.0000 </r>
       <r>   -14.4150     0.0000   156.0000 </r>
       <r>   -14.2990    17.2446   158.0000 </r>
       <r>   -14.1830    17.2446   160.0000 </r>
       <r>   -14.0671     0.0000   160.0000 </r>
       <r>   -13.9511     0.0000   160.0000 </r>
       <r>   -13.8351     0.8704   160.1010 </r>
       <r>   -13.7191    17.2446   166.0000 </r>
       <r>   -13.6031    34.9000   170.6810 </r>
       <r>   -13.4872    28.9042   176.1856 </r>
       <r>   -13.3712    10.9851   180.0740 </r>
       <r>   -13.2552    25.7306   183.8175 </r>
       <r>   -13.1392    34.3822   189.9876 </r>
       <r>   -13.0233    36.9474   196.2851 </r>
       <r>   -12.9073     0.0000   198.0000 </r>
       <r>   -12.7913     0.0000   198.0000 </r>
       <r>   -12.6753     0.0000   198.0000 </r>
       <r>   -12.5593    20.8966   200.4236 </r>
       <r>   -12.4434    75.8834   211.9342 </r>
       <r>   -12.3274    11.4989   214.0003 </r>
       <r>   -12.2114     8.6289   217.2674 </r>
       <r>   -12.0954    56.7374   224.5803 </r>
       <r>   -11.9795    26.6102   229.8529 </r>
       <r>   -11.8635    24.9891   233.8982 </r>
       <r>   -11.7475    11.4040   235.3226 </r>
       <r>   -11.6315     0.0000   236.0000 </r>
       <r>   -11.5155    12.3586   238.0000 </r>
       <r>   -11.3996    49.9963   243.7985 </r>
       <r>   -11.2836    30.0068   250.2801 </r>
       <r>   -11.1676     0.0000   252.0000 </r>
       <r>   -11.0516    10.8879   253.2628 </r>
       <r>   -10.9356    32.7694   257.8005 </r>
       <r>   -10.8197    10.7466   259.2464 </r>
       <r>   -10.7037    36.2305   268.0020 </r>
       <r>   -10.5877    41.7507   275.5088 </r>
       <r>   -10.4717    34.4892   282.0000 </r>
       <r>   -10.3558     0.0000   282.0000 </r>
       <r>   -10.2398    51.7328   287.9999 </r>
       <r>   -10.1238    52.4930   294.0881 </r>
       <r>   -10.0078    32.9839   298.9254 </r>
       <r>    -9.8918    12.6443   301.4665 </r>
       <r>    -9.7759    17.4641   304.0255 </r>
       <r>    -9.6599     6.0367   308.7001 </r>
       <r>    -9.5439    41.9365   314.4304 </r>
       <r>    -9.4279    34.4892   320.0000 </r>
       <r>    -9.3119    17.2447   322.0000 </r>
       <r>    -9.1960    10.6342   326.0000 </r>
       <r>    -9.0800    34.4892   330.0000 </r>
       <r>    -8.9640     0.0000   330.0000 </r>
       <r>    -8.8480     0.0068   330.0008 </r>
       <r>    -8.7321    17.1574   333.9899 </r>
       <r>    -8.6161     0.0005   334.0001 </r>
       <r>    -8.5001    34.4892   342.0000 </r>
       <r>    -8.3841    17.2178   343.9969 </r>
       <r>    -8.2681     0.0000   344.0000 </r>
       <r>    -8.1522    17.1384   345.9877 </r>
       <r>    -8.0362     5.4869   348.6364 </r>
       <r>    -7.9202    34.7960   354.0356 </r>
       <r>    -7.8042    25.5588   357.8976 </r>
       <r>    -7.6882    12.3157   362.2617 </r>
       <r>    -7.5723     6.9510   363.8728 </r>
       <r>    -7.4563    74.9148   374.6885 </r>
       <r>    -7.3403    21.3857   378.3803 </r>
       <r>    -7.2243     4.4664   379.0847 </r>
       <r>    -7.1084    88.6697   390.2838 </r>
       <r>    -6.9924    10.7676   392.6155 </r>
       <r>    -6.8764     3.8755   395.5161 </r>
       <r>    -6.7604     6.0717   398.4042 </r>
       <r>    -6.6444    43.3970   405.9998 </r>
       <r>    -6.5285    34.5038   410.0017 </r>
       <r>    -6.4125    68.9847   422.0007 </r>
       <r>    -6.2965    22.7185   426.1349 </r>
       <r>    -6.1805    56.2382   433.1558 </r>
       <r>    -6.0646     9.8316   435.1402 </r>
       <r>    -5.9486    20.6935   438.0000 </r>
       <r>    -5.8326     0.0000   438.0000 </r>
       <r>    -5.7166     0.0000   438.0000 </r>
       <r>    -5.6006     0.0000   438.0000 </r>
       <r>    -5.4847     0.0000   438.0000 </r>
       <r>    -5.3687     0.0000   438.0000 </r>
       <r>    -5.2527     0.0000   438.0000 </r>
       <r>    -5.1367     0.0000   438.0000 </r>
       <r>    -5.0207     1.0613   438.1231 </r>
       <r>    -4.9048    15.3773   440.6501 </r>
       <r>    -4.7888     3.7363   442.0000 </r>
       <r>    -4.6728     0.0000   442.0000 </r>
       <r>    -4.5568     0.0000   442.0000 </r>
       <r>    -4.4409     0.0000   442.0000 </r>
       <r>    -4.3249     0.0000   442.0000 </r>
       <r>    -4.2089     0.0000   442.0000 </r>
       <r>    -4.0929     0.0000   442.0000 </r>
       <r>    -3.9769     0.0000   442.0000 </r>
       <r>    -3.8610     0.0000   442.0000 </r>
       <r>    -3.7450     0.0000   442.0000 </r>
       <r>    -3.6290     0.0000   442.0000 </r>
       <r>    -3.5130     0.0000   442.0000 </r>
       <r>    -3.3970     0.0000   442.0000 </r>
       <r>    -3.2811    42.8121   446.9653 </r>
       <r>    -3.1651     0.0000   448.0000 </r>
       <r>    -3.0491    51.7338   454.0000 </r>
       <r>    -2.9331     0.0000   454.0000 </r>
       <r>    -2.8172    23.2928   456.7015 </r>
       <r>    -2.7012     8.4726   458.9826 </r>
       <r>    -2.5852     3.7363   460.0000 </r>
       <r>    -2.4692     0.0000   460.0000 </r>
       <r>    -2.3532     0.0000   460.0000 </r>
       <r>    -2.2373     0.0004   460.0000 </r>
       <r>    -2.1213    32.0757   465.9868 </r>
       <r>    -2.0053    41.5316   470.8168 </r>
       <r>    -1.8893    51.7338   478.0000 </r>
       <r>    -1.7734    14.5453   479.6869 </r>
       <r>    -1.6574     5.7380   481.3321 </r>
       <r>    -1.5414     2.5114   481.7913 </r>
       <r>    -1.4254    34.0159   485.8784 </r>
       <r>    -1.3094    21.7262   492.5198 </r>
       <r>    -1.1935     2.8889   493.0017 </r>
       <r>    -1.0775     3.7363   494.0000 </r>
       <r>    -0.9615     2.3492   494.2725 </r>
       <r>    -0.8455     2.9815   495.3125 </r>
       <r>    -0.7295     2.7090   495.7475 </r>
       <r>    -0.6136    20.9751   498.3327 </r>
       <r>    -0.4976    20.7085   502.8017 </r>
       <r>    -0.3816     6.3230   504.0000 </r>
       <r>    -0.2656    25.5920   506.9681 </r>
       <r>    -0.1497    31.3158   513.6320 </r>
       <r>    -0.0337    17.2779   516.0039 </r>
       <r>     0.0823    40.7164   521.8889 </r>
       <r>     0.1983    38.3016   526.4422 </r>
       <r>     0.3143    19.1212   532.7510 </r>
       <r>     0.4302    23.7320   536.9524 </r>
       <r>     0.5462    69.3851   545.3472 </r>
       <r>     0.6622    58.3130   555.4631 </r>
       <r>     0.7782    69.0332   565.2064 </r>
       <r>     0.8942    52.7781   574.5211 </r>
       <r>     1.0101     1.4370   576.0000 </r>
       <r>     1.1261     0.0000   576.0000 </r>
       <r>     1.2421     0.0000   576.0000 </r>
       <r>     1.3581     0.0000   576.0000 </r>
       <r>     1.4740     0.0000   576.0000 </r>
       <r>     1.5900     0.0000   576.0000 </r>
       <r>     1.7060     0.0000   576.0000 </r>
       <r>     1.8220     0.0000   576.0000 </r>
       <r>     1.9380     0.0000   576.0000 </r>
       <r>     2.0539     0.0000   576.0000 </r>
       <r>     2.1699     0.0000   576.0000 </r>
       <r>     2.2859     0.0000   576.0000 </r>
       <r>     2.4019     0.0000   576.0000 </r>
       <r>     2.5179     0.0000   576.0000 </r>
      </set>
     </set>
    </array>
   </total>
  </dos>
 </calculation>
 <structure name="finalpos" >
  <crystal>
   <varray name="basis" >
    <v>      31.95753800      -0.04312807       0.00000000 </v>
    <v>     -16.01592974      27.72499787       0.00000000 </v>
    <v>       0.00000000       0.00000000      20.00000000 </v>
   </varray>
   <i name="volume">  17706.63873631 </i>
   <varray name="rec_basis" >
    <v>       0.03131594       0.01809031       0.00000000 </v>
    <v>       0.00004871       0.03609667       0.00000000 </v>
    <v>       0.00000000       0.00000000       0.05000000 </v>
   </varray>
  </crystal>
  <varray name="positions" >
   <v>       0.40200646       0.70024386       0.40375328 </v>
   <v>       0.44868172       0.65845246       0.40296598 </v>
   <v>       0.29733951       0.59151082       0.53576011 </v>
   <v>       0.34247390       0.54806865       0.53219877 </v>
   <v>       0.45972629       0.59929167       0.36791307 </v>
   <v>       0.40611312       0.54305340       0.56589547 </v>
   <v>       0.40195098       0.73326413       0.53644568 </v>
   <v>       0.26433541       0.59205302       0.40331338 </v>
   <v>       0.33581819       0.81734797       0.40203186 </v>
   <v>       0.29374034       0.72880049       0.40308315 </v>
   <v>       0.44566369       0.82193839       0.53273399 </v>
   <v>       0.26069863       0.69602884       0.53669634 </v>
   <v>       0.17183862       0.65105065       0.53339390 </v>
   <v>       0.17558954       0.54557576       0.40267149 </v>
   <v>       0.39619551       0.88737349       0.36637120 </v>
   <v>       0.10289953       0.58616966       0.56745427 </v>
   <v>       0.62641653       0.19416344       0.55510398 </v>
   <v>       0.67219882       0.28365748       0.55214180 </v>
   <v>       0.57595122       0.28232649       0.40011460 </v>
   <v>       0.53087564       0.19283192       0.40175849 </v>
   <v>       0.57479220       0.31922230       0.54967214 </v>
   <v>       0.53100817       0.36486189       0.55172780 </v>
   <v>       0.70981491       0.32031266       0.40129472 </v>
   <v>       0.79948802       0.36484170       0.40264651 </v>
   <v>       0.79874291       0.46085340       0.55326164 </v>
   <v>       0.70911081       0.41704122       0.55060287 </v>
   <v>       0.67243313       0.41696817       0.40097577 </v>
   <v>       0.62801354       0.46199941       0.40187436 </v>
   <v>       0.55064761       0.12438401       0.37334196 </v>
   <v>       0.10565667       0.53680238       0.36675701 </v>
   <v>       0.86885415       0.45289240       0.37281081 </v>
   <v>       0.54097696       0.44476356       0.37166725 </v>
   <v>       0.53465646       0.12697428       0.58776256 </v>
   <v>       0.45007019       0.89060945       0.56614252 </v>
   <v>       0.86525799       0.43637190       0.58766356 </v>
   <v>       0.55494811       0.45449664       0.58695219 </v>
   <v>       0.38912037       0.66700620       0.43225432 </v>
   <v>       0.41511727       0.64292138       0.43152863 </v>
   <v>       0.39942335       0.59972749       0.46739295 </v>
   <v>       0.35632835       0.58179097       0.50450419 </v>
   <v>       0.33044011       0.60601618       0.50634741 </v>
   <v>       0.42771643       0.57495324       0.46678688 </v>
   <v>       0.48214757       0.52885108       0.47243859 </v>
   <v>       0.48565464       0.55726737       0.41674650 </v>
   <v>       0.45767336       0.57912814       0.41289021 </v>
   <v>       0.42743554       0.54676881       0.52125034 </v>
   <v>       0.34643017       0.64901150       0.47005536 </v>
   <v>       0.34475831       0.72470391       0.47001048 </v>
   <v>       0.26886070       0.64726174       0.47026383 </v>
   <v>       0.32694225       0.74926772       0.43179336 </v>
   <v>       0.35117145       0.79936872       0.43093187 </v>
   <v>       0.39430330       0.82696648       0.46711053 </v>
   <v>       0.41201523       0.80194235       0.50474126 </v>
   <v>       0.38764943       0.75181036       0.50667946 </v>
   <v>       0.24193502       0.66311246       0.50705598 </v>
   <v>       0.19170043       0.63734007       0.50536026 </v>
   <v>       0.16639893       0.59454846       0.46783479 </v>
   <v>       0.19380727       0.57895276       0.43150795 </v>
   <v>       0.24401299       0.60482501       0.43214472 </v>
   <v>       0.41921933       0.88004581       0.46628673 </v>
   <v>       0.11322007       0.56644935       0.46713718 </v>
   <v>       0.08524898       0.56568024       0.52225148 </v>
   <v>       0.62696115       0.28887238       0.47612366 </v>
   <v>       0.70356047       0.36566636       0.47595284 </v>
   <v>       0.62666519       0.36523904       0.47543452 </v>
   <v>       0.58641938       0.35062181       0.51747004 </v>
   <v>       0.56197753       0.37635460       0.51848989 </v>
   <v>       0.57639074       0.41672926       0.47696643 </v>
   <v>       0.61613996       0.43057937       0.43418939 </v>
   <v>       0.64124311       0.40550794       0.43367401 </v>
   <v>       0.64108264       0.26358408       0.51942821 </v>
   <v>       0.61527681       0.21337731       0.52094623 </v>
   <v>       0.57535487       0.18707494       0.47863415 </v>
   <v>       0.56193735       0.21265065       0.43472378 </v>
   <v>       0.58704980       0.26284417       0.43374089 </v>
   <v>       0.72947032       0.35131815       0.43424513 </v>
   <v>       0.77976233       0.37646947       0.43503407 </v>
   <v>       0.80555177       0.41600603       0.47809480 </v>
   <v>       0.77936306       0.43009590       0.51973389 </v>
   <v>       0.72906793       0.40562629       0.51839369 </v>
   <v>       0.46491046       0.98054145       0.47171562 </v>
   <v>       0.43745422       0.95547565       0.41540015 </v>
   <v>       0.41573334       0.90564083       0.41170663 </v>
   <v>       0.49187271       0.03371784       0.47647962 </v>
   <v>       0.54733671       0.13385875       0.48033128 </v>
   <v>       0.53674795       0.10632581       0.42135226 </v>
   <v>       0.01248921       0.51190081       0.47253203 </v>
   <v>       0.03747179       0.50980957       0.41591674 </v>
   <v>       0.08742684       0.53778241       0.41228594 </v>
   <v>       0.95921954       0.48580022       0.47709762 </v>
   <v>       0.85885397       0.44117554       0.47995825 </v>
   <v>       0.88670902       0.45752192       0.42111273 </v>
   <v>       0.50770536       0.50125548       0.47677571 </v>
   <v>       0.55147255       0.44495196       0.47896118 </v>
   <v>       0.53597985       0.45740952       0.42018650 </v>
   <v>       0.44677054       0.90810943       0.52113280 </v>
   <v>       0.49978654       0.05842751       0.53752175 </v>
   <v>       0.52870132       0.10832453       0.54006292 </v>
   <v>       0.93413299       0.46954837       0.53802820 </v>
   <v>       0.88416362       0.44862616       0.54002335 </v>
   <v>       0.52289736       0.49126252       0.53773689 </v>
   <v>       0.54342934       0.46197880       0.53931198 </v>
   <v>       0.50364235       0.56007919       0.30400784 </v>
   <v>       0.56308974       0.58391946       0.37696209 </v>
   <v>       0.43698942       0.97084593       0.30234528 </v>
   <v>       0.41091272       0.00555840       0.37324155 </v>
   <v>       0.02100652       0.49540287       0.30284157 </v>
   <v>       0.98801729       0.43346500       0.37216657 </v>
   <v>       0.50077012       0.04227333       0.65034815 </v>
   <v>       0.43066233       0.00790293       0.59775567 </v>
   <v>       0.94975977       0.48785390       0.65061398 </v>
   <v>       0.98355593       0.45081398       0.60041152 </v>
   <v>       0.50320645       0.48659078       0.65006887 </v>
   <v>       0.54116168       0.55834112       0.60236978 </v>
   <v>       0.52014514       0.56721752       0.36151112 </v>
   <v>       0.45256143       0.52392169       0.52329919 </v>
   <v>       0.32002655       0.67364157       0.47133319 </v>
   <v>       0.65240603       0.33995054       0.47538250 </v>
   <v>       0.51112270       0.05828976       0.41969031 </v>
   <v>       0.42838046       0.97983746       0.35922133 </v>
   <v>       0.93484061       0.47991494       0.41991922 </v>
   <v>       0.01291638       0.47696989       0.35917490 </v>
   <v>       0.51400629       0.48342783       0.41927859 </v>
   <v>       0.46938023       0.95609599       0.52315612 </v>
   <v>       0.47519266       0.03363594       0.60000925 </v>
   <v>       0.03716866       0.54042541       0.52425808 </v>
   <v>       0.95837540       0.47013279       0.60118597 </v>
   <v>       0.52160815       0.51381814       0.60157953 </v>
  </varray>
 </structure>
</modeling>
