<?xml version="1.0" encoding="ISO-8859-1"?>
<modeling>
 <generator>
  <i name="program" type="string">vasp </i>
  <i name="version" type="string">5.4.4.18Apr17-6-g9f103f2a35  </i>
  <i name="subversion" type="string">(build Jun 07 2020 16:50:00) complex            parallel </i>
  <i name="platform" type="string">LinuxIFC </i>
  <i name="date" type="string">2023 02 23 </i>
  <i name="time" type="string">17:32:44 </i>
 </generator>
 <incar>
  <i type="string" name="SYSTEM">Simulation for cell shape cell volume r</i>
  <i type="int" name="ISTART">     1</i>
  <i type="string" name="PREC">high</i>
  <i type="string" name="ALGO">48</i>
  <i type="int" name="ICHARG">    11</i>
  <i type="int" name="NELM">   200</i>
  <i type="int" name="IBRION">    -1</i>
  <i name="EDIFF">      0.00001000</i>
  <i name="EDIFFG">     -0.01000000</i>
  <i type="int" name="NSW">     0</i>
  <i type="int" name="ISIF">     2</i>
  <i name="ENCUT">    500.00000000</i>
  <i name="POTIM">      0.30000000</i>
  <i type="string" name="LREAL">A</i>
  <i type="int" name="ISMEAR">     0</i>
  <i name="SIGMA">      0.01000000</i>
  <i type="int" name="NWRITE">     0</i>
  <i type="logical" name="LWAVE"> F  </i>
  <i type="logical" name="LCHARG"> F  </i>
  <v type="int" name="KPOINT_BSE">    -1     0     0     0</v>
  <i type="int" name="NELM">   200</i>
  <i type="string" name="GGA">PE</i>
 </incar>
 <structure name="primitive_cell" >
  <crystal>
   <varray name="basis" >
    <v>      29.81673087       0.04269933       0.00000000 </v>
    <v>     -14.87138675      25.83081799       0.00000000 </v>
    <v>       0.00000000       0.00000000      20.00000000 </v>
   </varray>
   <i name="volume">  15416.51092671 </i>
   <varray name="rec_basis" >
    <v>       0.03351059       0.01929280       0.00000000 </v>
    <v>      -0.00005539       0.03868156       0.00000000 </v>
    <v>       0.00000000       0.00000000       0.05000000 </v>
   </varray>
  </crystal>
  <varray name="positions" >
   <v>       0.45012786      -0.21664318      -0.46940146 </v>
   <v>       0.40642363      -0.22741284      -0.48785222 </v>
   <v>       0.48163435      -0.13484177      -0.42805427 </v>
   <v>       0.39303593      -0.19047254       0.49637558 </v>
   <v>       0.36377503      -0.28266286      -0.49365586 </v>
   <v>       0.42030310      -0.30641072      -0.49109899 </v>
   <v>       0.37886288      -0.32037603      -0.49431619 </v>
   <v>       0.46793184      -0.11287122      -0.45633600 </v>
   <v>       0.42391223      -0.13686332      -0.49665193 </v>
   <v>       0.35810566      -0.20302175       0.47429183 </v>
   <v>       0.31124006      -0.29806734      -0.49258329 </v>
   <v>       0.29724979      -0.27061299      -0.48795765 </v>
   <v>       0.34184736      -0.37290044      -0.49438849 </v>
   <v>       0.49490064      -0.05888502      -0.45259528 </v>
   <v>       0.40901970      -0.10474200       0.46944332 </v>
   <v>       0.42658755      -0.36762024       0.47196245 </v>
   <v>      -0.44436484      -0.05801952      -0.37417120 </v>
   <v>       0.37400458      -0.12234887       0.43840791 </v>
   <v>       0.27364285      -0.35073664      -0.49278472 </v>
   <v>      -0.45903817      -0.03367333      -0.40826304 </v>
   <v>       0.28917631      -0.38784899      -0.49344477 </v>
   <v>       0.40453578      -0.40245919       0.49436924 </v>
   <v>       0.35447407      -0.41568880      -0.48902676 </v>
   <v>       0.47773678      -0.02998602      -0.49002535 </v>
   <v>       0.43471491      -0.05346903       0.47214034 </v>
   <v>       0.49159286      -0.38323534       0.43615050 </v>
   <v>       0.26187639      -0.42926547      -0.48957799 </v>
   <v>       0.21838087      -0.36336144      -0.48614749 </v>
   <v>       0.42748231      -0.43326761      -0.49880514 </v>
   <v>       0.32180864      -0.45930490      -0.47013346 </v>
   <v>       0.20748382      -0.33067743      -0.46670184 </v>
   <v>      -0.42890081       0.02634464      -0.40599212 </v>
   <v>       0.47444864      -0.41820262       0.46729887 </v>
   <v>      -0.49279410       0.02723740      -0.48919121 </v>
   <v>      -0.44762021       0.05377576      -0.44971507 </v>
   <v>      -0.39127341       0.04903798      -0.36920900 </v>
   <v>       0.18160117      -0.41344757       0.49752447 </v>
   <v>       0.40773942      -0.47735552      -0.45859522 </v>
   <v>       0.19430849      -0.43559999       0.47498310 </v>
   <v>       0.37211192      -0.49115618      -0.43034800 </v>
   <v>       0.49026174       0.05290300       0.47270384 </v>
   <v>      -0.49968744      -0.44369916       0.47014155 </v>
   <v>       0.43499738       0.49580255      -0.45486374 </v>
   <v>       0.12537178      -0.38039217      -0.42773113 </v>
   <v>      -0.41974651       0.10764953      -0.45184692 </v>
   <v>       0.12799266      -0.43622069      -0.49555573 </v>
   <v>       0.48110420      -0.48675013      -0.49209915 </v>
   <v>      -0.48322073       0.10441215       0.47110833 </v>
   <v>      -0.38475208       0.12777508      -0.42144935 </v>
   <v>       0.10366439      -0.41616596      -0.45570794 </v>
   <v>      -0.43692864       0.13419799      -0.49229058 </v>
   <v>       0.41452034       0.44977353      -0.41043607 </v>
   <v>       0.11404913       0.49937731       0.43988999 </v>
   <v>       0.09619087      -0.48329833       0.47077099 </v>
   <v>       0.37647978       0.43589465      -0.37479115 </v>
   <v>      -0.49855304       0.12358971       0.43985924 </v>
   <v>      -0.49066615       0.48414186      -0.49103929 </v>
   <v>      -0.44749914      -0.49814221       0.47194990 </v>
   <v>       0.04969159      -0.44331291      -0.45207170 </v>
   <v>       0.04810404      -0.38331667      -0.37452873 </v>
   <v>      -0.40695229       0.18815957      -0.49537622 </v>
   <v>       0.44365785       0.41873800      -0.41006779 </v>
   <v>       0.04494652       0.49096748       0.47349830 </v>
   <v>      -0.37239616       0.20359831      -0.47134278 </v>
   <v>       0.49046003       0.43841450      -0.45256952 </v>
   <v>       0.02408357      -0.42241677      -0.40838829 </v>
   <v>       0.02114915      -0.48958604      -0.48895634 </v>
   <v>      -0.42215908       0.47556352       0.47045754 </v>
   <v>      -0.41969407       0.22291451       0.47740495 </v>
   <v>      -0.46245176       0.21053300       0.45360700 </v>
   <v>       0.42768475       0.37968989      -0.37569808 </v>
   <v>      -0.38711177       0.49157340       0.44031827 </v>
   <v>      -0.48323269       0.41074635      -0.45472449 </v>
   <v>      -0.31103770       0.26539805       0.47703480 </v>
   <v>      -0.43896703       0.42868035      -0.49411437 </v>
   <v>      -0.03593502      -0.45239563      -0.40641159 </v>
   <v>      -0.03603505       0.48222635      -0.48788678 </v>
   <v>      -0.37699706       0.27836029       0.47970802 </v>
   <v>      -0.49828015       0.37531314      -0.42512528 </v>
   <v>      -0.32452336       0.29335177       0.47984461 </v>
   <v>      -0.06298471      -0.49901742      -0.44925451 </v>
   <v>      -0.05890746      -0.43718860      -0.37042143 </v>
   <v>      -0.06123996       0.43906126       0.47507155 </v>
   <v>      -0.41481711       0.39876467      -0.49719586 </v>
   <v>      -0.43304497       0.30292150       0.47514517 </v>
   <v>      -0.33647938       0.45462254       0.45365004 </v>
   <v>      -0.39172639       0.31631331       0.47878223 </v>
   <v>      -0.21853580       0.32817908       0.45546771 </v>
   <v>      -0.43415122       0.36391878      -0.47387598 </v>
   <v>      -0.28671541       0.34590164       0.48021307 </v>
   <v>      -0.36707513       0.41166355       0.47661100 </v>
   <v>      -0.11685215       0.47461194      -0.45138618 </v>
   <v>      -0.11273152       0.41369990       0.47354356 </v>
   <v>      -0.23123100       0.35858364       0.47859851 </v>
   <v>      -0.13734970       0.48956357      -0.42171340 </v>
   <v>      -0.35437966       0.36878544       0.47915024 </v>
   <v>      -0.14292758       0.43040550      -0.49095267 </v>
   <v>      -0.13157050       0.37871872       0.44326670 </v>
   <v>      -0.30182295       0.38337701       0.47929163 </v>
   <v>      -0.19688327       0.40610909      -0.49431316 </v>
   <v>      -0.27394271       0.42468974       0.47604215 </v>
   <v>      -0.21270715       0.42524293      -0.47104017 </v>
  </varray>
 </structure>
 <varray name="primitive_index" >
  <v type="int" >        1 </v>
  <v type="int" >       79 </v>
  <v type="int" >       20 </v>
  <v type="int" >       96 </v>
  <v type="int" >       78 </v>
  <v type="int" >       14 </v>
  <v type="int" >       41 </v>
  <v type="int" >       56 </v>
  <v type="int" >       84 </v>
  <v type="int" >       30 </v>
  <v type="int" >       40 </v>
  <v type="int" >       13 </v>
  <v type="int" >       37 </v>
  <v type="int" >       57 </v>
  <v type="int" >       83 </v>
  <v type="int" >       33 </v>
  <v type="int" >        7 </v>
  <v type="int" >       29 </v>
  <v type="int" >       39 </v>
  <v type="int" >       58 </v>
  <v type="int" >       38 </v>
  <v type="int" >       99 </v>
  <v type="int" >       42 </v>
  <v type="int" >       55 </v>
  <v type="int" >       95 </v>
  <v type="int" >       32 </v>
  <v type="int" >       15 </v>
  <v type="int" >       43 </v>
  <v type="int" >       87 </v>
  <v type="int" >        2 </v>
  <v type="int" >        3 </v>
  <v type="int" >       59 </v>
  <v type="int" >       86 </v>
  <v type="int" >       52 </v>
  <v type="int" >       53 </v>
  <v type="int" >        8 </v>
  <v type="int" >      102 </v>
  <v type="int" >       65 </v>
  <v type="int" >       36 </v>
  <v type="int" >       23 </v>
  <v type="int" >       94 </v>
  <v type="int" >       98 </v>
  <v type="int" >       66 </v>
  <v type="int" >       26 </v>
  <v type="int" >       54 </v>
  <v type="int" >       90 </v>
  <v type="int" >       64 </v>
  <v type="int" >       82 </v>
  <v type="int" >       19 </v>
  <v type="int" >       74 </v>
  <v type="int" >       51 </v>
  <v type="int" >       67 </v>
  <v type="int" >       35 </v>
  <v type="int" >       89 </v>
  <v type="int" >        9 </v>
  <v type="int" >       28 </v>
  <v type="int" >       61 </v>
  <v type="int" >       97 </v>
  <v type="int" >       75 </v>
  <v type="int" >       11 </v>
  <v type="int" >       91 </v>
  <v type="int" >       68 </v>
  <v type="int" >      101 </v>
  <v type="int" >       21 </v>
  <v type="int" >       62 </v>
  <v type="int" >       76 </v>
  <v type="int" >       73 </v>
  <v type="int" >       85 </v>
  <v type="int" >       81 </v>
  <v type="int" >        4 </v>
  <v type="int" >       10 </v>
  <v type="int" >       31 </v>
  <v type="int" >       63 </v>
  <v type="int" >       16 </v>
  <v type="int" >       60 </v>
  <v type="int" >       77 </v>
  <v type="int" >       70 </v>
  <v type="int" >       80 </v>
  <v type="int" >       22 </v>
  <v type="int" >       47 </v>
  <v type="int" >       71 </v>
  <v type="int" >       12 </v>
  <v type="int" >      100 </v>
  <v type="int" >       92 </v>
  <v type="int" >       17 </v>
  <v type="int" >        5 </v>
  <v type="int" >       48 </v>
  <v type="int" >        6 </v>
  <v type="int" >       24 </v>
  <v type="int" >       46 </v>
  <v type="int" >       49 </v>
  <v type="int" >       72 </v>
  <v type="int" >       88 </v>
  <v type="int" >       50 </v>
  <v type="int" >       25 </v>
  <v type="int" >       44 </v>
  <v type="int" >       69 </v>
  <v type="int" >       34 </v>
  <v type="int" >       45 </v>
  <v type="int" >       93 </v>
  <v type="int" >       18 </v>
  <v type="int" >       27 </v>
 </varray>
 <kpoints>
  <generation param="listgenerated">
   <i name="divisions" type="int">      20 </i>
   <v>       0.00000000       0.00000000       0.00000000 </v>
   <v>       0.50000000       0.00000000       0.00000000 </v>
   <v>       0.33333333       0.33333333       0.00000000 </v>
   <v>       0.00000000       0.00000000       0.00000000 </v>
  </generation>
  <varray name="kpointlist" >
   <v>       0.00000000       0.00000000       0.00000000 </v>
   <v>       0.02631579       0.00000000       0.00000000 </v>
   <v>       0.05263158       0.00000000       0.00000000 </v>
   <v>       0.07894737       0.00000000       0.00000000 </v>
   <v>       0.10526316       0.00000000       0.00000000 </v>
   <v>       0.13157895       0.00000000       0.00000000 </v>
   <v>       0.15789474       0.00000000       0.00000000 </v>
   <v>       0.18421053       0.00000000       0.00000000 </v>
   <v>       0.21052632       0.00000000       0.00000000 </v>
   <v>       0.23684211       0.00000000       0.00000000 </v>
   <v>       0.26315789       0.00000000       0.00000000 </v>
   <v>       0.28947368       0.00000000       0.00000000 </v>
   <v>       0.31578947       0.00000000       0.00000000 </v>
   <v>       0.34210526       0.00000000       0.00000000 </v>
   <v>       0.36842105       0.00000000       0.00000000 </v>
   <v>       0.39473684       0.00000000       0.00000000 </v>
   <v>       0.42105263       0.00000000       0.00000000 </v>
   <v>       0.44736842       0.00000000       0.00000000 </v>
   <v>       0.47368421       0.00000000       0.00000000 </v>
   <v>       0.50000000       0.00000000       0.00000000 </v>
   <v>       0.50000000       0.00000000       0.00000000 </v>
   <v>       0.49122807       0.01754386       0.00000000 </v>
   <v>       0.48245614       0.03508772       0.00000000 </v>
   <v>       0.47368421       0.05263158       0.00000000 </v>
   <v>       0.46491228       0.07017544       0.00000000 </v>
   <v>       0.45614035       0.08771930       0.00000000 </v>
   <v>       0.44736842       0.10526316       0.00000000 </v>
   <v>       0.43859649       0.12280702       0.00000000 </v>
   <v>       0.42982456       0.14035088       0.00000000 </v>
   <v>       0.42105263       0.15789474       0.00000000 </v>
   <v>       0.41228070       0.17543860       0.00000000 </v>
   <v>       0.40350877       0.19298246       0.00000000 </v>
   <v>       0.39473684       0.21052632       0.00000000 </v>
   <v>       0.38596491       0.22807018       0.00000000 </v>
   <v>       0.37719298       0.24561404       0.00000000 </v>
   <v>       0.36842105       0.26315789       0.00000000 </v>
   <v>       0.35964912       0.28070175       0.00000000 </v>
   <v>       0.35087719       0.29824561       0.00000000 </v>
   <v>       0.34210526       0.31578947       0.00000000 </v>
   <v>       0.33333333       0.33333333       0.00000000 </v>
   <v>       0.33333333       0.33333333       0.00000000 </v>
   <v>       0.31578947       0.31578947       0.00000000 </v>
   <v>       0.29824561       0.29824561       0.00000000 </v>
   <v>       0.28070175       0.28070175       0.00000000 </v>
   <v>       0.26315789       0.26315789       0.00000000 </v>
   <v>       0.24561404       0.24561404       0.00000000 </v>
   <v>       0.22807018       0.22807018       0.00000000 </v>
   <v>       0.21052632       0.21052632       0.00000000 </v>
   <v>       0.19298246       0.19298246       0.00000000 </v>
   <v>       0.17543860       0.17543860       0.00000000 </v>
   <v>       0.15789474       0.15789474       0.00000000 </v>
   <v>       0.14035088       0.14035088       0.00000000 </v>
   <v>       0.12280702       0.12280702       0.00000000 </v>
   <v>       0.10526316       0.10526316       0.00000000 </v>
   <v>       0.08771930       0.08771930       0.00000000 </v>
   <v>       0.07017544       0.07017544       0.00000000 </v>
   <v>       0.05263158       0.05263158       0.00000000 </v>
   <v>       0.03508772       0.03508772       0.00000000 </v>
   <v>       0.01754386       0.01754386       0.00000000 </v>
   <v>       0.00000000       0.00000000       0.00000000 </v>
  </varray>
  <varray name="weights" >
   <v>       0.01666667 </v>
   <v>       0.01666667 </v>
   <v>       0.01666667 </v>
   <v>       0.01666667 </v>
   <v>       0.01666667 </v>
   <v>       0.01666667 </v>
   <v>       0.01666667 </v>
   <v>       0.01666667 </v>
   <v>       0.01666667 </v>
   <v>       0.01666667 </v>
   <v>       0.01666667 </v>
   <v>       0.01666667 </v>
   <v>       0.01666667 </v>
   <v>       0.01666667 </v>
   <v>       0.01666667 </v>
   <v>       0.01666667 </v>
   <v>       0.01666667 </v>
   <v>       0.01666667 </v>
   <v>       0.01666667 </v>
   <v>       0.01666667 </v>
   <v>       0.01666667 </v>
   <v>       0.01666667 </v>
   <v>       0.01666667 </v>
   <v>       0.01666667 </v>
   <v>       0.01666667 </v>
   <v>       0.01666667 </v>
   <v>       0.01666667 </v>
   <v>       0.01666667 </v>
   <v>       0.01666667 </v>
   <v>       0.01666667 </v>
   <v>       0.01666667 </v>
   <v>       0.01666667 </v>
   <v>       0.01666667 </v>
   <v>       0.01666667 </v>
   <v>       0.01666667 </v>
   <v>       0.01666667 </v>
   <v>       0.01666667 </v>
   <v>       0.01666667 </v>
   <v>       0.01666667 </v>
   <v>       0.01666667 </v>
   <v>       0.01666667 </v>
   <v>       0.01666667 </v>
   <v>       0.01666667 </v>
   <v>       0.01666667 </v>
   <v>       0.01666667 </v>
   <v>       0.01666667 </v>
   <v>       0.01666667 </v>
   <v>       0.01666667 </v>
   <v>       0.01666667 </v>
   <v>       0.01666667 </v>
   <v>       0.01666667 </v>
   <v>       0.01666667 </v>
   <v>       0.01666667 </v>
   <v>       0.01666667 </v>
   <v>       0.01666667 </v>
   <v>       0.01666667 </v>
   <v>       0.01666667 </v>
   <v>       0.01666667 </v>
   <v>       0.01666667 </v>
   <v>       0.01666667 </v>
  </varray>
 </kpoints>
 <parameters>
  <separator name="general" >
   <i type="string" name="SYSTEM">Simulation for cell shape cell volume r</i>
   <i type="logical" name="LCOMPAT"> F  </i>
  </separator>
  <separator name="electronic" >
   <i type="string" name="PREC">high</i>
   <i name="ENMAX">    500.00000000</i>
   <i name="ENAUG">    644.87300000</i>
   <i name="EDIFF">      0.00001000</i>
   <i type="int" name="IALGO">    38</i>
   <i type="int" name="IWAVPR">    10</i>
   <i type="int" name="NBANDS">   240</i>
   <i name="NELECT">    372.00000000</i>
   <i type="int" name="TURBO">     0</i>
   <i type="int" name="IRESTART">     0</i>
   <i type="int" name="NREBOOT">     0</i>
   <i type="int" name="NMIN">     0</i>
   <i name="EREF">      0.00000000</i>
   <separator name="electronic smearing" >
    <i type="int" name="ISMEAR">     0</i>
    <i name="SIGMA">      0.01000000</i>
    <i name="KSPACING">      0.50000000</i>
    <i type="logical" name="KGAMMA"> T  </i>
   </separator>
   <separator name="electronic projectors" >
    <i type="logical" name="LREAL"> T  </i>
    <v name="ROPT">     -0.00040000     -0.00040000     -0.00040000     -0.00040000</v>
    <i type="int" name="LMAXPAW">  -100</i>
    <i type="int" name="LMAXMIX">     2</i>
    <i type="logical" name="NLSPLINE"> F  </i>
   </separator>
   <separator name="electronic startup" >
    <i type="int" name="ISTART">     1</i>
    <i type="int" name="ICHARG">    11</i>
    <i type="int" name="INIWAV">     1</i>
   </separator>
   <separator name="electronic spin" >
    <i type="int" name="ISPIN">     1</i>
    <i type="logical" name="LNONCOLLINEAR"> F  </i>
    <v name="MAGMOM">      1.00000000      1.00000000      1.00000000      1.00000000      1.00000000      1.00000000      1.00000000      1.00000000      1.00000000      1.00000000      1.00000000      1.00000000      1.00000000      1.00000000      1.00000000      1.00000000      1.00000000      1.00000000      1.00000000      1.00000000
      1.00000000      1.00000000      1.00000000      1.00000000      1.00000000      1.00000000      1.00000000      1.00000000      1.00000000      1.00000000      1.00000000      1.00000000      1.00000000      1.00000000      1.00000000      1.00000000      1.00000000      1.00000000      1.00000000      1.00000000
      1.00000000      1.00000000      1.00000000      1.00000000      1.00000000      1.00000000      1.00000000      1.00000000      1.00000000      1.00000000      1.00000000      1.00000000      1.00000000      1.00000000      1.00000000      1.00000000      1.00000000      1.00000000      1.00000000      1.00000000
      1.00000000      1.00000000      1.00000000      1.00000000      1.00000000      1.00000000      1.00000000      1.00000000      1.00000000      1.00000000      1.00000000      1.00000000      1.00000000      1.00000000      1.00000000      1.00000000      1.00000000      1.00000000      1.00000000      1.00000000
      1.00000000      1.00000000      1.00000000      1.00000000      1.00000000      1.00000000      1.00000000      1.00000000      1.00000000      1.00000000      1.00000000      1.00000000      1.00000000      1.00000000      1.00000000      1.00000000      1.00000000      1.00000000      1.00000000      1.00000000
      1.00000000      1.00000000</v>
    <i name="NUPDOWN">     -1.00000000</i>
    <i type="logical" name="LSORBIT"> F  </i>
    <v name="SAXIS">      0.00000000      0.00000000      1.00000000</v>
    <i type="logical" name="LSPIRAL"> F  </i>
    <v name="QSPIRAL">      0.00000000      0.00000000      0.00000000</v>
    <i type="logical" name="LZEROZ"> F  </i>
   </separator>
   <separator name="electronic exchange-correlation" >
    <i type="logical" name="LASPH"> F  </i>
    <i type="logical" name="LMETAGGA"> F  </i>
   </separator>
   <separator name="electronic convergence" >
    <i type="int" name="NELM">   200</i>
    <i type="int" name="NELMDL">     0</i>
    <i type="int" name="NELMIN">     2</i>
    <i name="ENINI">    500.00000000</i>
    <separator name="electronic convergence detail" >
     <i type="logical" name="LDIAG"> T  </i>
     <i type="logical" name="LSUBROT"> F  </i>
     <i name="WEIMIN">      0.00000000</i>
     <i name="EBREAK">      0.00000001</i>
     <i name="DEPER">      0.30000000</i>
     <i type="int" name="NRMM">     4</i>
     <i name="TIME">      0.40000000</i>
    </separator>
   </separator>
   <separator name="electronic mixer" >
    <i name="AMIX">      0.40000000</i>
    <i name="BMIX">      1.00000000</i>
    <i name="AMIN">      0.10000000</i>
    <i name="AMIX_MAG">      1.60000000</i>
    <i name="BMIX_MAG">      1.00000000</i>
    <separator name="electronic mixer details" >
     <i type="int" name="IMIX">     4</i>
     <i type="logical" name="MIXFIRST"> F  </i>
     <i type="int" name="MAXMIX">   -45</i>
     <i name="WC">    100.00000000</i>
     <i type="int" name="INIMIX">     1</i>
     <i type="int" name="MIXPRE">     1</i>
     <i type="int" name="MREMOVE">     5</i>
    </separator>
   </separator>
   <separator name="electronic dipolcorrection" >
    <i type="logical" name="LDIPOL"> F  </i>
    <i type="logical" name="LMONO"> F  </i>
    <i type="int" name="IDIPOL">     0</i>
    <i name="EPSILON">      1.00000000</i>
    <v name="DIPOL">   -100.00000000   -100.00000000   -100.00000000</v>
    <i name="EFIELD">      0.00000000</i>
   </separator>
  </separator>
  <separator name="grids" >
   <i type="int" name="NGX">   224</i>
   <i type="int" name="NGY">   224</i>
   <i type="int" name="NGZ">   150</i>
   <i type="int" name="NGXF">   336</i>
   <i type="int" name="NGYF">   336</i>
   <i type="int" name="NGZF">   224</i>
   <i type="logical" name="ADDGRID"> F  </i>
  </separator>
  <separator name="ionic" >
   <i type="int" name="NSW">     0</i>
   <i type="int" name="IBRION">    -1</i>
   <i type="int" name="MDALGO">     0</i>
   <i type="int" name="ISIF">     2</i>
   <i name="PSTRESS">      0.00000000</i>
   <i name="EDIFFG">     -0.01000000</i>
   <i type="int" name="NFREE">     0</i>
   <i name="POTIM">      0.30000000</i>
   <i name="SMASS">     -3.00000000</i>
   <i name="SCALEE">      1.00000000</i>
  </separator>
  <separator name="ionic md" >
   <i name="TEBEG">      0.00010000</i>
   <i name="TEEND">      0.00010000</i>
   <i type="int" name="NBLOCK">     1</i>
   <i type="int" name="KBLOCK">     1</i>
   <i type="int" name="NPACO">   256</i>
   <i name="APACO">     16.00000000</i>
  </separator>
  <separator name="symmetry" >
   <i type="int" name="ISYM">     2</i>
   <i name="SYMPREC">      0.00001000</i>
  </separator>
  <separator name="dos" >
   <i type="int" name="LORBIT">     0</i>
   <v name="RWIGS">     -1.00000000     -1.00000000     -1.00000000     -1.00000000</v>
   <i type="int" name="NEDOS">   301</i>
   <i name="EMIN">     10.00000000</i>
   <i name="EMAX">    -10.00000000</i>
   <i name="EFERMI">      0.00000000</i>
  </separator>
  <separator name="writing" >
   <i type="int" name="NWRITE">     0</i>
   <i type="logical" name="LWAVE"> F  </i>
   <i type="logical" name="LDOWNSAMPLE"> F  </i>
   <i type="logical" name="LCHARG"> F  </i>
   <i type="logical" name="LPARD"> F  </i>
   <i type="logical" name="LVTOT"> F  </i>
   <i type="logical" name="LVHAR"> F  </i>
   <i type="logical" name="LELF"> F  </i>
   <i type="logical" name="LOPTICS"> F  </i>
   <v name="STM">      0.00000000      0.00000000      0.00000000      0.00000000      0.00000000      0.00000000      0.00000000</v>
  </separator>
  <separator name="performance" >
   <i type="int" name="NPAR">    16</i>
   <i type="int" name="NSIM">     4</i>
   <i type="int" name="NBLK">    -1</i>
   <i type="logical" name="LPLANE"> T  </i>
   <i type="logical" name="LSCALAPACK"> T  </i>
   <i type="logical" name="LSCAAWARE"> F  </i>
   <i type="logical" name="LSCALU"> F  </i>
   <i type="logical" name="LASYNC"> F  </i>
   <i type="logical" name="LORBITALREAL"> F  </i>
  </separator>
  <separator name="miscellaneous" >
   <i type="int" name="IDIOT">     3</i>
   <i type="int" name="ISPECIAL">     0</i>
   <i type="logical" name="LMUSIC"> F  </i>
   <v name="POMASS">     16.00000000      1.00000000     12.01100000     14.00100000</v>
   <v name="DARWINR">      0.00000000      0.00000000      0.00000000      0.00000000</v>
   <v name="DARWINV">      1.00000000      1.00000000      1.00000000      1.00000000</v>
   <i type="logical" name="LCORR"> T  </i>
  </separator>
  <i type="logical" name="GGA_COMPAT"> T  </i>
  <i type="logical" name="LBERRY"> F  </i>
  <i type="int" name="ICORELEVEL">     0</i>
  <i type="logical" name="LDAU"> F  </i>
  <i type="int" name="I_CONSTRAINED_M">     0</i>
  <separator name="electronic exchange-correlation" >
   <i type="string" name="GGA">PE</i>
   <i type="int" name="VOSKOWN">     0</i>
   <i type="logical" name="LHFCALC"> F  </i>
   <i type="string" name="PRECFOCK"></i>
   <i type="logical" name="LSYMGRAD"> F  </i>
   <i type="logical" name="LHFONE"> F  </i>
   <i type="logical" name="LRHFCALC"> F  </i>
   <i type="logical" name="LTHOMAS"> F  </i>
   <i type="logical" name="LMODELHF"> F  </i>
   <i name="ENCUT4O">     -1.00000000</i>
   <i type="int" name="EXXOEP">     0</i>
   <i type="int" name="FOURORBIT">     0</i>
   <i name="AEXX">      0.00000000</i>
   <i name="HFALPHA">      0.00000000</i>
   <i name="MCALPHA">      0.00000000</i>
   <i name="ALDAX">      1.00000000</i>
   <i name="AGGAX">      1.00000000</i>
   <i name="ALDAC">      1.00000000</i>
   <i name="AGGAC">      1.00000000</i>
   <i type="int" name="NKREDX">     1</i>
   <i type="int" name="NKREDY">     1</i>
   <i type="int" name="NKREDZ">     1</i>
   <i type="logical" name="SHIFTRED"> F  </i>
   <i type="logical" name="ODDONLY"> F  </i>
   <i type="logical" name="EVENONLY"> F  </i>
   <i type="int" name="LMAXFOCK">     0</i>
   <i type="int" name="NMAXFOCKAE">     0</i>
   <i type="logical" name="LFOCKAEDFT"> F  </i>
   <i name="HFSCREEN">      0.00000000</i>
   <i name="HFSCREENC">      0.00000000</i>
   <i type="int" name="NBANDSGWLOW">     0</i>
  </separator>
  <separator name="vdW DFT" >
   <i type="logical" name="LUSE_VDW"> F  </i>
   <i name="Zab_VDW">     -0.84910000</i>
   <i name="PARAM1">      0.12340000</i>
   <i name="PARAM2">      1.00000000</i>
   <i name="PARAM3">      0.00000000</i>
  </separator>
  <separator name="model GW" >
   <i type="int" name="MODEL_GW">     0</i>
   <i name="MODEL_EPS0">     90.68535839</i>
   <i name="MODEL_ALPHA">      1.00000000</i>
  </separator>
  <separator name="linear response parameters" >
   <i type="logical" name="LEPSILON"> F  </i>
   <i type="logical" name="LRPA"> F  </i>
   <i type="logical" name="LNABLA"> F  </i>
   <i type="logical" name="LVEL"> F  </i>
   <i type="int" name="KINTER">     0</i>
   <i name="CSHIFT">      0.10000000</i>
   <i name="OMEGAMAX">     -1.00000000</i>
   <i name="DEG_THRESHOLD">      0.00200000</i>
   <i name="RTIME">     -0.10000000</i>
   <i name="WPLASMAI">      0.00000000</i>
   <v name="DFIELD">      0.00000000      0.00000000      0.00000000</v>
   <v name="WPLASMA">      0.00000000      0.00000000      0.00000000      0.00000000      0.00000000      0.00000000      0.00000000      0.00000000      0.00000000</v>
  </separator>
  <separator name="orbital magnetization" >
   <i type="logical" name="NUCIND"> F  </i>
   <v name="MAGPOS">      0.00000000      0.00000000      0.00000000</v>
   <i type="logical" name="LNICSALL"> T  </i>
   <i type="logical" name="ORBITALMAG"> F  </i>
   <i type="logical" name="LMAGBLOCH"> F  </i>
   <i type="logical" name="LCHIMAG"> F  </i>
   <i type="logical" name="LGAUGE"> T  </i>
   <i type="int" name="MAGATOM">     0</i>
   <v name="MAGDIPOL">      0.00000000      0.00000000      0.00000000</v>
   <v name="AVECCONST">      0.00000000      0.00000000      0.00000000</v>
  </separator>
  <separator name="response functions" >
   <i type="logical" name="LADDER"> F  </i>
   <i type="logical" name="LRPAFORCE"> F  </i>
   <i type="logical" name="LFXC"> F  </i>
   <i type="logical" name="LHARTREE"> T  </i>
   <i type="int" name="IBSE">     0</i>
   <v type="int" name="KPOINT">    -1     0     0     0</v>
   <i type="logical" name="LTCTE"> F  </i>
   <i type="logical" name="LTETE"> F  </i>
   <i type="logical" name="LTRIPLET"> F  </i>
   <i type="logical" name="LFXCEPS"> F  </i>
   <i type="logical" name="LFXHEG"> F  </i>
   <i type="int" name="NATURALO">     2</i>
   <i type="logical" name="L2ORDER"> F  </i>
   <i type="logical" name="LMP2LT"> F  </i>
   <i type="logical" name="LUSEW"> F  </i>
   <i name="ENCUTGW">     -2.00000000</i>
   <i name="ENCUTGWSOFT">     -2.00000000</i>
   <i name="ENCUTLF">     -1.00000000</i>
   <i type="int" name="LMAXMP2">    -1</i>
   <i name="SCISSOR">      0.00000000</i>
   <i type="int" name="NOMEGA">     0</i>
   <i type="int" name="NOMEGAR">     0</i>
   <i type="int" name="NBANDSGW">    -1</i>
   <i type="int" name="NBANDSO">    -1</i>
   <i type="int" name="NBANDSV">    -1</i>
   <i type="int" name="NELM">   200</i>
   <i type="int" name="NELMHF">     1</i>
   <i type="int" name="DIM">     3</i>
   <i type="int" name="ANTIRES">     0</i>
   <i name="OMEGAMAX">    -30.00000000</i>
   <i name="OMEGAMIN">    -30.00000000</i>
   <i name="OMEGATL">   -200.00000000</i>
   <i type="int" name="OMEGAGRID">   140</i>
   <i name="CSHIFT">     -0.10000000</i>
   <i type="logical" name="SELFENERGY"> F  </i>
   <i type="logical" name="LSPECTRAL"> F  </i>
   <i type="logical" name="LSPECTRALGW"> F  </i>
   <i type="logical" name="LSINGLES"> F  </i>
   <i type="logical" name="LFERMIGW"> F  </i>
   <i type="logical" name="ODDONLYGW"> F  </i>
   <i type="logical" name="EVENONLYGW"> F  </i>
   <i type="int" name="NKREDLFX">     1</i>
   <i type="int" name="NKREDLFY">     1</i>
   <i type="int" name="NKREDLFZ">     1</i>
   <i type="int" name="MAXMEM">  2800</i>
   <i type="int" name="TELESCOPE">     0</i>
   <i type="int" name="TAUPAR">     1</i>
   <i type="int" name="OMEGAPAR">    -1</i>
   <i name="LAMBDA">      1.00000000</i>
  </separator>
  <separator name="External order field" >
   <i name="OFIELD_KAPPA">      0.00000000</i>
   <v name="OFIELD_K">      0.00000000      0.00000000      0.00000000</v>
   <i name="OFIELD_Q6_NEAR">      0.00000000</i>
   <i name="OFIELD_Q6_FAR">      0.00000000</i>
   <i name="OFIELD_A">      0.00000000</i>
  </separator>
  <separator name="solvation model" >
   <i type="logical" name="LSOL"> F  </i>
  </separator>
 </parameters>
 <atominfo>
  <atoms>     102 </atoms>
  <types>       4 </types>
  <array name="atoms" >
   <dimension dim="1">ion</dimension>
   <field type="string">element</field>
   <field type="int">atomtype</field>
   <set>
    <rc><c>O </c><c>   1</c></rc>
    <rc><c>O </c><c>   1</c></rc>
    <rc><c>O </c><c>   1</c></rc>
    <rc><c>O </c><c>   1</c></rc>
    <rc><c>O </c><c>   1</c></rc>
    <rc><c>O </c><c>   1</c></rc>
    <rc><c>O </c><c>   1</c></rc>
    <rc><c>O </c><c>   1</c></rc>
    <rc><c>O </c><c>   1</c></rc>
    <rc><c>O </c><c>   1</c></rc>
    <rc><c>O </c><c>   1</c></rc>
    <rc><c>O </c><c>   1</c></rc>
    <rc><c>H </c><c>   2</c></rc>
    <rc><c>H </c><c>   2</c></rc>
    <rc><c>H </c><c>   2</c></rc>
    <rc><c>H </c><c>   2</c></rc>
    <rc><c>H </c><c>   2</c></rc>
    <rc><c>H </c><c>   2</c></rc>
    <rc><c>H </c><c>   2</c></rc>
    <rc><c>H </c><c>   2</c></rc>
    <rc><c>H </c><c>   2</c></rc>
    <rc><c>H </c><c>   2</c></rc>
    <rc><c>H </c><c>   2</c></rc>
    <rc><c>H </c><c>   2</c></rc>
    <rc><c>H </c><c>   2</c></rc>
    <rc><c>H </c><c>   2</c></rc>
    <rc><c>H </c><c>   2</c></rc>
    <rc><c>H </c><c>   2</c></rc>
    <rc><c>H </c><c>   2</c></rc>
    <rc><c>H </c><c>   2</c></rc>
    <rc><c>H </c><c>   2</c></rc>
    <rc><c>H </c><c>   2</c></rc>
    <rc><c>H </c><c>   2</c></rc>
    <rc><c>H </c><c>   2</c></rc>
    <rc><c>H </c><c>   2</c></rc>
    <rc><c>H </c><c>   2</c></rc>
    <rc><c>C </c><c>   3</c></rc>
    <rc><c>C </c><c>   3</c></rc>
    <rc><c>C </c><c>   3</c></rc>
    <rc><c>C </c><c>   3</c></rc>
    <rc><c>C </c><c>   3</c></rc>
    <rc><c>C </c><c>   3</c></rc>
    <rc><c>C </c><c>   3</c></rc>
    <rc><c>C </c><c>   3</c></rc>
    <rc><c>C </c><c>   3</c></rc>
    <rc><c>C </c><c>   3</c></rc>
    <rc><c>C </c><c>   3</c></rc>
    <rc><c>C </c><c>   3</c></rc>
    <rc><c>C </c><c>   3</c></rc>
    <rc><c>C </c><c>   3</c></rc>
    <rc><c>C </c><c>   3</c></rc>
    <rc><c>C </c><c>   3</c></rc>
    <rc><c>C </c><c>   3</c></rc>
    <rc><c>C </c><c>   3</c></rc>
    <rc><c>C </c><c>   3</c></rc>
    <rc><c>C </c><c>   3</c></rc>
    <rc><c>C </c><c>   3</c></rc>
    <rc><c>C </c><c>   3</c></rc>
    <rc><c>C </c><c>   3</c></rc>
    <rc><c>C </c><c>   3</c></rc>
    <rc><c>C </c><c>   3</c></rc>
    <rc><c>C </c><c>   3</c></rc>
    <rc><c>C </c><c>   3</c></rc>
    <rc><c>C </c><c>   3</c></rc>
    <rc><c>C </c><c>   3</c></rc>
    <rc><c>C </c><c>   3</c></rc>
    <rc><c>C </c><c>   3</c></rc>
    <rc><c>C </c><c>   3</c></rc>
    <rc><c>C </c><c>   3</c></rc>
    <rc><c>C </c><c>   3</c></rc>
    <rc><c>C </c><c>   3</c></rc>
    <rc><c>C </c><c>   3</c></rc>
    <rc><c>C </c><c>   3</c></rc>
    <rc><c>C </c><c>   3</c></rc>
    <rc><c>C </c><c>   3</c></rc>
    <rc><c>C </c><c>   3</c></rc>
    <rc><c>C </c><c>   3</c></rc>
    <rc><c>C </c><c>   3</c></rc>
    <rc><c>C </c><c>   3</c></rc>
    <rc><c>C </c><c>   3</c></rc>
    <rc><c>C </c><c>   3</c></rc>
    <rc><c>C </c><c>   3</c></rc>
    <rc><c>C </c><c>   3</c></rc>
    <rc><c>C </c><c>   3</c></rc>
    <rc><c>C </c><c>   3</c></rc>
    <rc><c>C </c><c>   3</c></rc>
    <rc><c>C </c><c>   3</c></rc>
    <rc><c>C </c><c>   3</c></rc>
    <rc><c>C </c><c>   3</c></rc>
    <rc><c>C </c><c>   3</c></rc>
    <rc><c>N </c><c>   4</c></rc>
    <rc><c>N </c><c>   4</c></rc>
    <rc><c>N </c><c>   4</c></rc>
    <rc><c>N </c><c>   4</c></rc>
    <rc><c>N </c><c>   4</c></rc>
    <rc><c>N </c><c>   4</c></rc>
    <rc><c>N </c><c>   4</c></rc>
    <rc><c>N </c><c>   4</c></rc>
    <rc><c>N </c><c>   4</c></rc>
    <rc><c>N </c><c>   4</c></rc>
    <rc><c>N </c><c>   4</c></rc>
    <rc><c>N </c><c>   4</c></rc>
   </set>
  </array>
  <array name="atomtypes" >
   <dimension dim="1">type</dimension>
   <field type="int">atomspertype</field>
   <field type="string">element</field>
   <field>mass</field>
   <field>valence</field>
   <field type="string">pseudopotential</field>
   <set>
    <rc><c>  12</c><c>O </c><c>     16.00000000</c><c>      6.00000000</c><c>  PAW_PBE O 08Apr2002                   </c></rc>
    <rc><c>  24</c><c>H </c><c>      1.00000000</c><c>      1.00000000</c><c>  PAW_PBE H 15Jun2001                   </c></rc>
    <rc><c>  54</c><c>C </c><c>     12.01100000</c><c>      4.00000000</c><c>  PAW_PBE C 08Apr2002                   </c></rc>
    <rc><c>  12</c><c>N </c><c>     14.00100000</c><c>      5.00000000</c><c>  PAW_PBE N 08Apr2002                   </c></rc>
   </set>
  </array>
 </atominfo>
 <structure name="initialpos" >
  <crystal>
   <varray name="basis" >
    <v>      29.81673087       0.04269933       0.00000000 </v>
    <v>     -14.87138675      25.83081799       0.00000000 </v>
    <v>       0.00000000       0.00000000      20.00000000 </v>
   </varray>
   <i name="volume">  15416.51092671 </i>
   <varray name="rec_basis" >
    <v>       0.03351059       0.01929280       0.00000000 </v>
    <v>      -0.00005539       0.03868156       0.00000000 </v>
    <v>       0.00000000       0.00000000       0.05000000 </v>
   </varray>
  </crystal>
  <varray name="positions" >
   <v>       0.45012786       0.78335682       0.53059854 </v>
   <v>       0.32180864       0.54069510       0.52986654 </v>
   <v>       0.20748382       0.66932257       0.53329816 </v>
   <v>       0.53754824       0.21053300       0.45360700 </v>
   <v>       0.66352062       0.45462254       0.45365004 </v>
   <v>       0.78146420       0.32817908       0.45546771 </v>
   <v>       0.55563516       0.94198048       0.62582880 </v>
   <v>       0.60872659       0.04903798       0.63079100 </v>
   <v>       0.37647978       0.43589465       0.62520885 </v>
   <v>       0.42768475       0.37968989       0.62430192 </v>
   <v>       0.04810404       0.61668333       0.62547127 </v>
   <v>       0.94109254       0.56281140       0.62957857 </v>
   <v>       0.29724979       0.72938701       0.51204235 </v>
   <v>       0.42030310       0.69358928       0.50890101 </v>
   <v>       0.26187639       0.57073453       0.51042201 </v>
   <v>       0.68896230       0.26539805       0.47703480 </v>
   <v>       0.56695503       0.30292150       0.47514517 </v>
   <v>       0.72605729       0.42468974       0.47604215 </v>
   <v>       0.61524792       0.12777508       0.57855065 </v>
   <v>       0.48163435       0.86515823       0.57194573 </v>
   <v>       0.62760384       0.20359831       0.52865722 </v>
   <v>       0.50171985       0.37531314       0.57487472 </v>
   <v>       0.37211192       0.50884382       0.56965200 </v>
   <v>       0.56584878       0.36391878       0.52612402 </v>
   <v>       0.86265030       0.48956357       0.57828660 </v>
   <v>       0.12537178       0.61960783       0.57226887 </v>
   <v>       0.78729285       0.42524293       0.52895983 </v>
   <v>       0.50144696       0.12358971       0.43985924 </v>
   <v>       0.37400458       0.87765113       0.43840791 </v>
   <v>       0.35810566       0.79697825       0.47429183 </v>
   <v>       0.61288823       0.49157340       0.44031827 </v>
   <v>       0.49159286       0.61676466       0.43615050 </v>
   <v>       0.42658755       0.63237976       0.47196245 </v>
   <v>       0.86842950       0.37871872       0.44326670 </v>
   <v>       0.11404913       0.49937731       0.43988999 </v>
   <v>       0.19430849       0.56440001       0.47498310 </v>
   <v>       0.34184736       0.62709956       0.50561151 </v>
   <v>       0.28917631       0.61215101       0.50655523 </v>
   <v>       0.27364285       0.64926336       0.50721528 </v>
   <v>       0.31124006       0.70193266       0.50741671 </v>
   <v>       0.37886288       0.67962397       0.50568381 </v>
   <v>       0.35447407       0.58431120       0.51097324 </v>
   <v>       0.21838087       0.63663856       0.51385251 </v>
   <v>       0.64562034       0.36878544       0.47915024 </v>
   <v>       0.69817705       0.38337701       0.47929163 </v>
   <v>       0.71328459       0.34590164       0.48021307 </v>
   <v>       0.67547664       0.29335177       0.47984461 </v>
   <v>       0.60827361       0.31631331       0.47878223 </v>
   <v>       0.63292487       0.41166355       0.47661100 </v>
   <v>       0.76876900       0.35858364       0.47859851 </v>
   <v>       0.56307136       0.13419799       0.50770942 </v>
   <v>       0.50720590       0.02723740       0.51080879 </v>
   <v>       0.55237979       0.05377576       0.55028493 </v>
   <v>       0.58025349       0.10764953       0.54815308 </v>
   <v>       0.47773678       0.97001398       0.50997465 </v>
   <v>       0.46793184       0.88712878       0.54366400 </v>
   <v>       0.49490064       0.94111498       0.54740472 </v>
   <v>       0.54096183       0.96632667       0.59173696 </v>
   <v>       0.57109919       0.02634464       0.59400788 </v>
   <v>       0.56103297       0.42868035       0.50588563 </v>
   <v>       0.50933385       0.48414186       0.50896071 </v>
   <v>       0.49046003       0.43841450       0.54743048 </v>
   <v>       0.51676731       0.41074635       0.54527551 </v>
   <v>       0.48110420       0.51324987       0.50790085 </v>
   <v>       0.40773942       0.52264448       0.54140478 </v>
   <v>       0.43499738       0.49580255       0.54513626 </v>
   <v>       0.41452034       0.44977353       0.58956393 </v>
   <v>       0.44365785       0.41873800       0.58993221 </v>
   <v>       0.85707242       0.43040550       0.50904733 </v>
   <v>       0.96396495       0.48222635       0.51211322 </v>
   <v>       0.93701529       0.50098258       0.55074549 </v>
   <v>       0.88314785       0.47461194       0.54861382 </v>
   <v>       0.02114915       0.51041396       0.51104366 </v>
   <v>       0.10366439       0.58383404       0.54429206 </v>
   <v>       0.04969159       0.55668709       0.54792830 </v>
   <v>       0.02408357       0.57758323       0.59161171 </v>
   <v>       0.96406498       0.54760437       0.59358841 </v>
   <v>       0.36377503       0.71733714       0.50634414 </v>
   <v>       0.40642363       0.77258716       0.51214778 </v>
   <v>       0.62300294       0.27836029       0.47970802 </v>
   <v>       0.58030593       0.22291451       0.47740495 </v>
   <v>       0.51677927       0.10441215       0.47110833 </v>
   <v>       0.40901970       0.89525800       0.46944332 </v>
   <v>       0.42391223       0.86313668       0.50334807 </v>
   <v>       0.57784092       0.47556352       0.47045754 </v>
   <v>       0.47444864       0.58179738       0.46729887 </v>
   <v>       0.42748231       0.56673239       0.50119486 </v>
   <v>       0.88726848       0.41369990       0.47354356 </v>
   <v>       0.09619087       0.51670167       0.47077099 </v>
   <v>       0.12799266       0.56377931       0.50444427 </v>
   <v>       0.59304771       0.18815957       0.50462378 </v>
   <v>       0.58518289       0.39876467       0.50280414 </v>
   <v>       0.80311673       0.40610909       0.50568684 </v>
   <v>       0.49026174       0.05290300       0.47270384 </v>
   <v>       0.43471491       0.94653097       0.47214034 </v>
   <v>       0.39303593       0.80952746       0.49637558 </v>
   <v>       0.55250086       0.50185779       0.47194990 </v>
   <v>       0.50031256       0.55630084       0.47014155 </v>
   <v>       0.40453578       0.59754081       0.49436924 </v>
   <v>       0.93876004       0.43906126       0.47507155 </v>
   <v>       0.04494652       0.49096748       0.47349830 </v>
   <v>       0.18160117       0.58655243       0.49752447 </v>
  </varray>
 </structure>
 <calculation>
  <scstep>
   <time name="dav">  615.15  622.37</time>
   <time name="total">  615.42  622.65</time>
   <energy>
    <i name="alphaZ">     41.11621887 </i>
    <i name="ewald">  46158.57745926 </i>
    <i name="hartreedc"> -59758.96611043 </i>
    <i name="XCdc">   1390.10296790 </i>
    <i name="pawpsdc">  35170.21463435 </i>
    <i name="pawaedc"> -35248.21132095 </i>
    <i name="eentropy">     -0.00000000 </i>
    <i name="bandstr">  -5112.40922558 </i>
    <i name="atom">  16608.38449603 </i>
    <i name="e_fr_energy">   -751.19088056 </i>
    <i name="e_wo_entrp">   -751.19088056 </i>
    <i name="e_0_energy">   -751.19088056 </i>
   </energy>
  </scstep>
  <scstep>
   <time name="dav">  698.22  705.79</time>
   <time name="total">  698.22  705.79</time>
   <energy>
    <i name="e_fr_energy">   -751.70596031 </i>
    <i name="e_wo_entrp">   -751.70596031 </i>
    <i name="e_0_energy">   -751.70596031 </i>
   </energy>
  </scstep>
  <scstep>
   <time name="dav">  785.68  794.27</time>
   <time name="total">  785.69  794.28</time>
   <energy>
    <i name="e_fr_energy">   -751.71867666 </i>
    <i name="e_wo_entrp">   -751.71867666 </i>
    <i name="e_0_energy">   -751.71867666 </i>
   </energy>
  </scstep>
  <scstep>
   <time name="dav">  684.68  692.34</time>
   <time name="total">  684.68  692.35</time>
   <energy>
    <i name="e_fr_energy">   -751.71894105 </i>
    <i name="e_wo_entrp">   -751.71894105 </i>
    <i name="e_0_energy">   -751.71894105 </i>
   </energy>
  </scstep>
  <scstep>
   <time name="dav">  625.46  632.89</time>
   <time name="total">  625.46  632.89</time>
   <energy>
    <i name="e_fr_energy">   -751.71895181 </i>
    <i name="e_wo_entrp">   -751.71895181 </i>
    <i name="e_0_energy">   -751.71895181 </i>
   </energy>
  </scstep>
  <scstep>
   <time name="dav">  524.00  530.51</time>
   <time name="total">  524.01  530.52</time>
   <energy>
    <i name="alphaZ">     41.11621887 </i>
    <i name="ewald">  46158.57745926 </i>
    <i name="hartreedc"> -59758.96611043 </i>
    <i name="XCdc">   1390.10296790 </i>
    <i name="pawpsdc">  35170.21463435 </i>
    <i name="pawaedc"> -35248.21132095 </i>
    <i name="eentropy">     -0.00000000 </i>
    <i name="bandstr">  -5112.93729736 </i>
    <i name="atom">  16608.38449603 </i>
    <i name="e_fr_energy">   -751.71895234 </i>
    <i name="e_wo_entrp">   -751.71895234 </i>
    <i name="e_0_energy">   -751.71895234 </i>
   </energy>
  </scstep>
  <structure>
   <crystal>
    <varray name="basis" >
     <v>      29.81673087       0.04269933       0.00000000 </v>
     <v>     -14.87138675      25.83081799       0.00000000 </v>
     <v>       0.00000000       0.00000000      20.00000000 </v>
    </varray>
    <i name="volume">  15416.51092671 </i>
    <varray name="rec_basis" >
     <v>       0.03351059       0.01929280       0.00000000 </v>
     <v>      -0.00005539       0.03868156       0.00000000 </v>
     <v>       0.00000000       0.00000000       0.05000000 </v>
    </varray>
   </crystal>
   <varray name="positions" >
    <v>       0.45012786       0.78335682       0.53059854 </v>
    <v>       0.32180864       0.54069510       0.52986654 </v>
    <v>       0.20748382       0.66932257       0.53329816 </v>
    <v>       0.53754824       0.21053300       0.45360700 </v>
    <v>       0.66352062       0.45462254       0.45365004 </v>
    <v>       0.78146420       0.32817908       0.45546771 </v>
    <v>       0.55563516       0.94198048       0.62582880 </v>
    <v>       0.60872659       0.04903798       0.63079100 </v>
    <v>       0.37647978       0.43589465       0.62520885 </v>
    <v>       0.42768475       0.37968989       0.62430192 </v>
    <v>       0.04810404       0.61668333       0.62547127 </v>
    <v>       0.94109254       0.56281140       0.62957857 </v>
    <v>       0.29724979       0.72938701       0.51204235 </v>
    <v>       0.42030310       0.69358928       0.50890101 </v>
    <v>       0.26187639       0.57073453       0.51042201 </v>
    <v>       0.68896230       0.26539805       0.47703480 </v>
    <v>       0.56695503       0.30292150       0.47514517 </v>
    <v>       0.72605729       0.42468974       0.47604215 </v>
    <v>       0.61524792       0.12777508       0.57855065 </v>
    <v>       0.48163435       0.86515823       0.57194573 </v>
    <v>       0.62760384       0.20359831       0.52865722 </v>
    <v>       0.50171985       0.37531314       0.57487472 </v>
    <v>       0.37211192       0.50884382       0.56965200 </v>
    <v>       0.56584878       0.36391878       0.52612402 </v>
    <v>       0.86265030       0.48956357       0.57828660 </v>
    <v>       0.12537178       0.61960783       0.57226887 </v>
    <v>       0.78729285       0.42524293       0.52895983 </v>
    <v>       0.50144696       0.12358971       0.43985924 </v>
    <v>       0.37400458       0.87765113       0.43840791 </v>
    <v>       0.35810566       0.79697825       0.47429183 </v>
    <v>       0.61288823       0.49157340       0.44031827 </v>
    <v>       0.49159286       0.61676466       0.43615050 </v>
    <v>       0.42658755       0.63237976       0.47196245 </v>
    <v>       0.86842950       0.37871872       0.44326670 </v>
    <v>       0.11404913       0.49937731       0.43988999 </v>
    <v>       0.19430849       0.56440001       0.47498310 </v>
    <v>       0.34184736       0.62709956       0.50561151 </v>
    <v>       0.28917631       0.61215101       0.50655523 </v>
    <v>       0.27364285       0.64926336       0.50721528 </v>
    <v>       0.31124006       0.70193266       0.50741671 </v>
    <v>       0.37886288       0.67962397       0.50568381 </v>
    <v>       0.35447407       0.58431120       0.51097324 </v>
    <v>       0.21838087       0.63663856       0.51385251 </v>
    <v>       0.64562034       0.36878544       0.47915024 </v>
    <v>       0.69817705       0.38337701       0.47929163 </v>
    <v>       0.71328459       0.34590164       0.48021307 </v>
    <v>       0.67547664       0.29335177       0.47984461 </v>
    <v>       0.60827361       0.31631331       0.47878223 </v>
    <v>       0.63292487       0.41166355       0.47661100 </v>
    <v>       0.76876900       0.35858364       0.47859851 </v>
    <v>       0.56307136       0.13419799       0.50770942 </v>
    <v>       0.50720590       0.02723740       0.51080879 </v>
    <v>       0.55237979       0.05377576       0.55028493 </v>
    <v>       0.58025349       0.10764953       0.54815308 </v>
    <v>       0.47773678       0.97001398       0.50997465 </v>
    <v>       0.46793184       0.88712878       0.54366400 </v>
    <v>       0.49490064       0.94111498       0.54740472 </v>
    <v>       0.54096183       0.96632667       0.59173696 </v>
    <v>       0.57109919       0.02634464       0.59400788 </v>
    <v>       0.56103297       0.42868035       0.50588563 </v>
    <v>       0.50933385       0.48414186       0.50896071 </v>
    <v>       0.49046003       0.43841450       0.54743048 </v>
    <v>       0.51676731       0.41074635       0.54527551 </v>
    <v>       0.48110420       0.51324987       0.50790085 </v>
    <v>       0.40773942       0.52264448       0.54140478 </v>
    <v>       0.43499738       0.49580255       0.54513626 </v>
    <v>       0.41452034       0.44977353       0.58956393 </v>
    <v>       0.44365785       0.41873800       0.58993221 </v>
    <v>       0.85707242       0.43040550       0.50904733 </v>
    <v>       0.96396495       0.48222635       0.51211322 </v>
    <v>       0.93701529       0.50098258       0.55074549 </v>
    <v>       0.88314785       0.47461194       0.54861382 </v>
    <v>       0.02114915       0.51041396       0.51104366 </v>
    <v>       0.10366439       0.58383404       0.54429206 </v>
    <v>       0.04969159       0.55668709       0.54792830 </v>
    <v>       0.02408357       0.57758323       0.59161171 </v>
    <v>       0.96406498       0.54760437       0.59358841 </v>
    <v>       0.36377503       0.71733714       0.50634414 </v>
    <v>       0.40642363       0.77258716       0.51214778 </v>
    <v>       0.62300294       0.27836029       0.47970802 </v>
    <v>       0.58030593       0.22291451       0.47740495 </v>
    <v>       0.51677927       0.10441215       0.47110833 </v>
    <v>       0.40901970       0.89525800       0.46944332 </v>
    <v>       0.42391223       0.86313668       0.50334807 </v>
    <v>       0.57784092       0.47556352       0.47045754 </v>
    <v>       0.47444864       0.58179738       0.46729887 </v>
    <v>       0.42748231       0.56673239       0.50119486 </v>
    <v>       0.88726848       0.41369990       0.47354356 </v>
    <v>       0.09619087       0.51670167       0.47077099 </v>
    <v>       0.12799266       0.56377931       0.50444427 </v>
    <v>       0.59304771       0.18815957       0.50462378 </v>
    <v>       0.58518289       0.39876467       0.50280414 </v>
    <v>       0.80311673       0.40610909       0.50568684 </v>
    <v>       0.49026174       0.05290300       0.47270384 </v>
    <v>       0.43471491       0.94653097       0.47214034 </v>
    <v>       0.39303593       0.80952746       0.49637558 </v>
    <v>       0.55250086       0.50185779       0.47194990 </v>
    <v>       0.50031256       0.55630084       0.47014155 </v>
    <v>       0.40453578       0.59754081       0.49436924 </v>
    <v>       0.93876004       0.43906126       0.47507155 </v>
    <v>       0.04494652       0.49096748       0.47349830 </v>
    <v>       0.18160117       0.58655243       0.49752447 </v>
   </varray>
  </structure>
  <varray name="forces" >
   <v>      -0.00379937      -0.00583604       0.00089336 </v>
   <v>       0.00193342      -0.00739262       0.00062820 </v>
   <v>       0.00082861       0.00097820      -0.00150763 </v>
   <v>       0.00019621       0.00074312      -0.00187102 </v>
   <v>      -0.00162415       0.00319591      -0.00144769 </v>
   <v>      -0.00198448       0.00269190       0.00275428 </v>
   <v>       0.00718108       0.00235971      -0.00359134 </v>
   <v>       0.00577440      -0.00251582      -0.00005543 </v>
   <v>      -0.00228734      -0.00502627       0.00344585 </v>
   <v>      -0.00223434      -0.00237857      -0.00414823 </v>
   <v>      -0.00169129      -0.00217992      -0.00041041 </v>
   <v>       0.00091272      -0.00216832      -0.00018480 </v>
   <v>      -0.00319315       0.00150137      -0.00118434 </v>
   <v>       0.00021253      -0.00247692       0.00284150 </v>
   <v>      -0.00001324       0.00198300       0.00204660 </v>
   <v>       0.00278118      -0.00183955      -0.00034707 </v>
   <v>       0.00299749      -0.00046885       0.00012704 </v>
   <v>      -0.00086654       0.00010436       0.00002351 </v>
   <v>       0.00269176       0.00210328       0.00249432 </v>
   <v>       0.00182223       0.00082046       0.00000215 </v>
   <v>       0.00075461       0.00202247      -0.00107904 </v>
   <v>       0.00060865      -0.00154290      -0.00487598 </v>
   <v>       0.00194124      -0.00444946       0.00137693 </v>
   <v>       0.00231625       0.00126162      -0.00255248 </v>
   <v>       0.00046420      -0.00011179      -0.00033937 </v>
   <v>      -0.00115176       0.00039330      -0.00085106 </v>
   <v>      -0.00000731      -0.00002350       0.00029186 </v>
   <v>       0.00099814      -0.00055305       0.00166627 </v>
   <v>       0.00136395       0.00408739       0.00088632 </v>
   <v>      -0.00058077      -0.00114215      -0.00076446 </v>
   <v>       0.00052100       0.00037367      -0.00187559 </v>
   <v>      -0.00265593       0.00112050       0.00264032 </v>
   <v>       0.00034394       0.00369851       0.00299600 </v>
   <v>      -0.00059564      -0.00013514      -0.00069777 </v>
   <v>      -0.00195936       0.00021840       0.00121870 </v>
   <v>      -0.00039567      -0.00157524      -0.00035498 </v>
   <v>       0.00167897      -0.00502338       0.00262054 </v>
   <v>       0.00115001       0.00251619       0.00255104 </v>
   <v>      -0.00206480      -0.00116237       0.00074674 </v>
   <v>       0.00122438       0.00220330      -0.00134351 </v>
   <v>       0.00047960      -0.00233131       0.00287984 </v>
   <v>       0.00306235       0.00819156      -0.00354348 </v>
   <v>      -0.00414836       0.00129628       0.00036066 </v>
   <v>      -0.00217032       0.00060967      -0.00065374 </v>
   <v>      -0.00060010      -0.00223154       0.00044207 </v>
   <v>       0.00118685       0.00152261       0.00051574 </v>
   <v>       0.00020815       0.00037284       0.00002923 </v>
   <v>      -0.00213002       0.00219821      -0.00157555 </v>
   <v>       0.00215323      -0.00265187      -0.00014411 </v>
   <v>       0.00131812      -0.00196986      -0.00087605 </v>
   <v>      -0.00136883       0.00012440      -0.00091092 </v>
   <v>       0.00021446      -0.00129540       0.00064618 </v>
   <v>       0.00434900      -0.00233631       0.00207018 </v>
   <v>      -0.00166710       0.00014949      -0.00205186 </v>
   <v>      -0.00208279       0.00298329       0.00152325 </v>
   <v>       0.00063691       0.00207104      -0.00223281 </v>
   <v>       0.00499306       0.00047637      -0.00066933 </v>
   <v>       0.00397204      -0.00399183      -0.00338435 </v>
   <v>       0.00235463       0.00635329      -0.00422967 </v>
   <v>      -0.00157479      -0.00164454       0.00080271 </v>
   <v>      -0.00053609      -0.00046803       0.00028939 </v>
   <v>       0.00042667      -0.00189012      -0.00002895 </v>
   <v>      -0.00135352      -0.00187205       0.00086053 </v>
   <v>      -0.00228708      -0.00170456      -0.00076371 </v>
   <v>       0.00157351      -0.00310839       0.00684950 </v>
   <v>      -0.00486644      -0.00128321       0.00380510 </v>
   <v>       0.00673273       0.00046229      -0.00575762 </v>
   <v>      -0.00124644      -0.00096435      -0.00266419 </v>
   <v>      -0.00183489      -0.00048947      -0.00229840 </v>
   <v>      -0.00165264      -0.00081179       0.00002705 </v>
   <v>      -0.00070211       0.00349813       0.00212071 </v>
   <v>       0.00054535       0.00176635      -0.00056990 </v>
   <v>      -0.00074900       0.00085995       0.00139517 </v>
   <v>      -0.00250513      -0.00147210      -0.00071917 </v>
   <v>      -0.00027066      -0.00196477      -0.00205274 </v>
   <v>       0.00111751       0.00366285       0.00368254 </v>
   <v>      -0.00399595      -0.00226360      -0.00200740 </v>
   <v>       0.00014580       0.00301166       0.00141402 </v>
   <v>       0.00266888       0.00415401       0.00271837 </v>
   <v>      -0.00278276      -0.00030232      -0.00161464 </v>
   <v>       0.00145679      -0.00190514       0.00138260 </v>
   <v>      -0.00174405       0.00257040      -0.00208001 </v>
   <v>       0.00007037      -0.00143720       0.00254889 </v>
   <v>       0.00025335      -0.00202163      -0.00066913 </v>
   <v>      -0.00141408       0.00164533       0.00091592 </v>
   <v>      -0.00002552       0.00344696       0.00140696 </v>
   <v>      -0.00732469       0.00572394       0.00293919 </v>
   <v>      -0.00093465      -0.00084215       0.00008291 </v>
   <v>       0.00231007       0.00022053      -0.00120388 </v>
   <v>       0.00302717       0.00052296      -0.00163181 </v>
   <v>      -0.00014191      -0.00094571       0.00337324 </v>
   <v>      -0.00204978      -0.00014841      -0.00221002 </v>
   <v>      -0.00246070       0.00038760      -0.00156150 </v>
   <v>      -0.00090738       0.00170849      -0.00212445 </v>
   <v>       0.00056518      -0.00093426       0.00722155 </v>
   <v>      -0.00006870       0.00297659      -0.00009267 </v>
   <v>      -0.00220796       0.00046555       0.00327860 </v>
   <v>       0.00209792       0.00049800      -0.00178720 </v>
   <v>      -0.00423769      -0.00233771      -0.00598923 </v>
   <v>       0.00137357      -0.00080322       0.00026519 </v>
   <v>       0.00249640      -0.00018925       0.00031943 </v>
   <v>      -0.00133935      -0.00169335      -0.00083756 </v>
  </varray>
  <varray name="stress" >
   <v>       0.06835799      -0.00507595      -0.00611565 </v>
   <v>      -0.00507595       0.01787627      -0.00039819 </v>
   <v>      -0.00611566      -0.00039819      -0.16954374 </v>
  </varray>
  <energy>
   <i name="e_fr_energy">   -753.77039531 </i>
   <i name="e_wo_entrp">   -753.77039531 </i>
   <i name="e_0_energy">     -0.00000000 </i>
  </energy>
  <time name="totalsc"> 4683.92 4739.63</time>
  <eigenvalues>
   <array>
    <dimension dim="1">band</dimension>
    <dimension dim="2">kpoint</dimension>
    <dimension dim="3">spin</dimension>
    <field>eigene</field>
    <field>occ</field>
    <set>
     <set comment="spin 1">
      <set comment="kpoint 1">
       <r>  -26.7159    1.0000 </r>
       <r>  -26.7127    1.0000 </r>
       <r>  -26.7114    1.0000 </r>
       <r>  -26.6865    1.0000 </r>
       <r>  -26.6753    1.0000 </r>
       <r>  -26.6724    1.0000 </r>
       <r>  -26.6695    1.0000 </r>
       <r>  -26.6611    1.0000 </r>
       <r>  -26.6588    1.0000 </r>
       <r>  -26.0400    1.0000 </r>
       <r>  -26.0341    1.0000 </r>
       <r>  -26.0323    1.0000 </r>
       <r>  -24.5563    1.0000 </r>
       <r>  -24.5545    1.0000 </r>
       <r>  -24.5509    1.0000 </r>
       <r>  -24.4174    1.0000 </r>
       <r>  -24.4145    1.0000 </r>
       <r>  -24.4101    1.0000 </r>
       <r>  -24.0282    1.0000 </r>
       <r>  -24.0275    1.0000 </r>
       <r>  -24.0236    1.0000 </r>
       <r>  -23.5967    1.0000 </r>
       <r>  -23.5921    1.0000 </r>
       <r>  -23.5905    1.0000 </r>
       <r>  -22.4903    1.0000 </r>
       <r>  -22.4770    1.0000 </r>
       <r>  -20.8884    1.0000 </r>
       <r>  -20.8860    1.0000 </r>
       <r>  -20.8764    1.0000 </r>
       <r>  -20.5797    1.0000 </r>
       <r>  -20.5779    1.0000 </r>
       <r>  -20.5238    1.0000 </r>
       <r>  -20.5223    1.0000 </r>
       <r>  -20.4138    1.0000 </r>
       <r>  -20.2464    1.0000 </r>
       <r>  -19.9763    1.0000 </r>
       <r>  -19.9757    1.0000 </r>
       <r>  -19.6962    1.0000 </r>
       <r>  -19.6944    1.0000 </r>
       <r>  -19.1197    1.0000 </r>
       <r>  -18.9156    1.0000 </r>
       <r>  -18.9135    1.0000 </r>
       <r>  -17.8650    1.0000 </r>
       <r>  -17.8547    1.0000 </r>
       <r>  -17.8521    1.0000 </r>
       <r>  -17.5349    1.0000 </r>
       <r>  -17.5141    1.0000 </r>
       <r>  -17.5115    1.0000 </r>
       <r>  -16.9136    1.0000 </r>
       <r>  -16.9117    1.0000 </r>
       <r>  -16.6993    1.0000 </r>
       <r>  -16.4361    1.0000 </r>
       <r>  -16.4345    1.0000 </r>
       <r>  -16.3559    1.0000 </r>
       <r>  -16.3452    1.0000 </r>
       <r>  -16.3444    1.0000 </r>
       <r>  -16.0387    1.0000 </r>
       <r>  -15.7826    1.0000 </r>
       <r>  -15.7799    1.0000 </r>
       <r>  -15.6090    1.0000 </r>
       <r>  -15.6078    1.0000 </r>
       <r>  -15.2949    1.0000 </r>
       <r>  -15.2557    1.0000 </r>
       <r>  -14.9172    1.0000 </r>
       <r>  -14.9154    1.0000 </r>
       <r>  -14.7292    1.0000 </r>
       <r>  -14.7271    1.0000 </r>
       <r>  -14.6825    1.0000 </r>
       <r>  -14.4863    1.0000 </r>
       <r>  -14.2217    1.0000 </r>
       <r>  -14.2204    1.0000 </r>
       <r>  -13.9709    1.0000 </r>
       <r>  -13.9694    1.0000 </r>
       <r>  -13.8760    1.0000 </r>
       <r>  -13.7688    1.0000 </r>
       <r>  -13.3407    1.0000 </r>
       <r>  -13.3394    1.0000 </r>
       <r>  -13.3021    1.0000 </r>
       <r>  -13.0928    1.0000 </r>
       <r>  -12.9211    1.0000 </r>
       <r>  -12.9187    1.0000 </r>
       <r>  -12.8150    1.0000 </r>
       <r>  -12.5527    1.0000 </r>
       <r>  -12.5183    1.0000 </r>
       <r>  -12.5168    1.0000 </r>
       <r>  -12.4791    1.0000 </r>
       <r>  -12.2232    1.0000 </r>
       <r>  -12.2208    1.0000 </r>
       <r>  -12.1869    1.0000 </r>
       <r>  -12.1003    1.0000 </r>
       <r>  -11.9591    1.0000 </r>
       <r>  -11.9542    1.0000 </r>
       <r>  -11.9316    1.0000 </r>
       <r>  -11.9269    1.0000 </r>
       <r>  -11.9105    1.0000 </r>
       <r>  -11.6819    1.0000 </r>
       <r>  -11.6292    1.0000 </r>
       <r>  -11.6269    1.0000 </r>
       <r>  -11.4949    1.0000 </r>
       <r>  -11.4707    1.0000 </r>
       <r>  -11.4678    1.0000 </r>
       <r>  -11.3144    1.0000 </r>
       <r>  -11.3098    1.0000 </r>
       <r>  -11.2598    1.0000 </r>
       <r>  -11.2367    1.0000 </r>
       <r>  -11.0752    1.0000 </r>
       <r>  -11.0713    1.0000 </r>
       <r>  -11.0538    1.0000 </r>
       <r>  -11.0509    1.0000 </r>
       <r>  -10.9681    1.0000 </r>
       <r>  -10.7394    1.0000 </r>
       <r>  -10.7352    1.0000 </r>
       <r>  -10.7279    1.0000 </r>
       <r>  -10.6739    1.0000 </r>
       <r>  -10.6706    1.0000 </r>
       <r>  -10.6200    1.0000 </r>
       <r>  -10.6170    1.0000 </r>
       <r>  -10.5927    1.0000 </r>
       <r>  -10.5431    1.0000 </r>
       <r>  -10.4746    1.0000 </r>
       <r>  -10.4655    1.0000 </r>
       <r>  -10.4617    1.0000 </r>
       <r>  -10.4379    1.0000 </r>
       <r>  -10.4110    1.0000 </r>
       <r>  -10.3294    1.0000 </r>
       <r>  -10.3278    1.0000 </r>
       <r>  -10.2104    1.0000 </r>
       <r>  -10.2070    1.0000 </r>
       <r>  -10.1916    1.0000 </r>
       <r>  -10.1858    1.0000 </r>
       <r>  -10.1844    1.0000 </r>
       <r>   -9.8133    1.0000 </r>
       <r>   -9.7665    1.0000 </r>
       <r>   -9.7645    1.0000 </r>
       <r>   -9.7611    1.0000 </r>
       <r>   -9.6593    1.0000 </r>
       <r>   -9.6078    1.0000 </r>
       <r>   -9.6050    1.0000 </r>
       <r>   -9.5527    1.0000 </r>
       <r>   -9.5514    1.0000 </r>
       <r>   -9.5352    1.0000 </r>
       <r>   -9.4962    1.0000 </r>
       <r>   -9.4936    1.0000 </r>
       <r>   -9.3143    1.0000 </r>
       <r>   -9.3120    1.0000 </r>
       <r>   -9.2212    1.0000 </r>
       <r>   -8.9290    1.0000 </r>
       <r>   -8.9266    1.0000 </r>
       <r>   -8.6822    1.0000 </r>
       <r>   -8.3577    1.0000 </r>
       <r>   -8.3552    1.0000 </r>
       <r>   -8.2415    1.0000 </r>
       <r>   -7.5862    1.0000 </r>
       <r>   -7.5826    1.0000 </r>
       <r>   -7.5811    1.0000 </r>
       <r>   -7.4237    1.0000 </r>
       <r>   -7.4229    1.0000 </r>
       <r>   -7.3861    1.0000 </r>
       <r>   -7.3824    1.0000 </r>
       <r>   -7.3328    1.0000 </r>
       <r>   -7.3220    1.0000 </r>
       <r>   -7.3210    1.0000 </r>
       <r>   -6.9588    1.0000 </r>
       <r>   -6.9515    1.0000 </r>
       <r>   -6.9474    1.0000 </r>
       <r>   -6.7861    1.0000 </r>
       <r>   -6.7475    1.0000 </r>
       <r>   -6.7466    1.0000 </r>
       <r>   -6.7372    1.0000 </r>
       <r>   -6.6999    1.0000 </r>
       <r>   -6.6295    1.0000 </r>
       <r>   -6.6272    1.0000 </r>
       <r>   -6.4879    1.0000 </r>
       <r>   -6.4848    1.0000 </r>
       <r>   -6.4384    1.0000 </r>
       <r>   -6.3442    1.0000 </r>
       <r>   -6.3412    1.0000 </r>
       <r>   -5.9254    1.0000 </r>
       <r>   -5.9191    1.0000 </r>
       <r>   -5.9133    1.0000 </r>
       <r>   -5.8439    1.0000 </r>
       <r>   -5.8266    1.0000 </r>
       <r>   -5.8241    1.0000 </r>
       <r>   -5.6830    1.0000 </r>
       <r>   -5.6794    1.0000 </r>
       <r>   -5.6770    1.0000 </r>
       <r>   -4.2008    0.0000 </r>
       <r>   -4.1975    0.0000 </r>
       <r>   -4.1949    0.0000 </r>
       <r>   -3.3019    0.0000 </r>
       <r>   -3.2997    0.0000 </r>
       <r>   -3.0905    0.0000 </r>
       <r>   -3.0892    0.0000 </r>
       <r>   -2.9086    0.0000 </r>
       <r>   -2.4956    0.0000 </r>
       <r>   -2.4940    0.0000 </r>
       <r>   -2.4900    0.0000 </r>
       <r>   -2.4681    0.0000 </r>
       <r>   -2.4670    0.0000 </r>
       <r>   -2.0313    0.0000 </r>
       <r>   -1.7968    0.0000 </r>
       <r>   -1.3737    0.0000 </r>
       <r>   -1.3725    0.0000 </r>
       <r>   -1.0754    0.0000 </r>
       <r>   -1.0145    0.0000 </r>
       <r>   -1.0119    0.0000 </r>
       <r>   -0.9707    0.0000 </r>
       <r>   -0.9272    0.0000 </r>
       <r>   -0.6132    0.0000 </r>
       <r>   -0.5833    0.0000 </r>
       <r>   -0.5818    0.0000 </r>
       <r>   -0.5462    0.0000 </r>
       <r>   -0.5427    0.0000 </r>
       <r>   -0.1197    0.0000 </r>
       <r>   -0.1159    0.0000 </r>
       <r>   -0.0707    0.0000 </r>
       <r>   -0.0083    0.0000 </r>
       <r>   -0.0068    0.0000 </r>
       <r>    0.0626    0.0000 </r>
       <r>    0.0691    0.0000 </r>
       <r>    0.0776    0.0000 </r>
       <r>    0.1438    0.0000 </r>
       <r>    0.2242    0.0000 </r>
       <r>    0.3180    0.0000 </r>
       <r>    0.3191    0.0000 </r>
       <r>    0.3199    0.0000 </r>
       <r>    0.4038    0.0000 </r>
       <r>    0.4039    0.0000 </r>
       <r>    0.4235    0.0000 </r>
       <r>    0.4253    0.0000 </r>
       <r>    0.5407    0.0000 </r>
       <r>    0.5693    0.0000 </r>
       <r>    0.6047    0.0000 </r>
       <r>    0.6473    0.0000 </r>
       <r>    0.6505    0.0000 </r>
       <r>    0.6583    0.0000 </r>
       <r>    0.6734    0.0000 </r>
       <r>    0.6756    0.0000 </r>
       <r>    0.7262    0.0000 </r>
       <r>    0.7394    0.0000 </r>
      </set>
      <set comment="kpoint 2">
       <r>  -26.7159    1.0000 </r>
       <r>  -26.7127    1.0000 </r>
       <r>  -26.7114    1.0000 </r>
       <r>  -26.6865    1.0000 </r>
       <r>  -26.6753    1.0000 </r>
       <r>  -26.6724    1.0000 </r>
       <r>  -26.6695    1.0000 </r>
       <r>  -26.6611    1.0000 </r>
       <r>  -26.6588    1.0000 </r>
       <r>  -26.0400    1.0000 </r>
       <r>  -26.0341    1.0000 </r>
       <r>  -26.0323    1.0000 </r>
       <r>  -24.5563    1.0000 </r>
       <r>  -24.5545    1.0000 </r>
       <r>  -24.5509    1.0000 </r>
       <r>  -24.4174    1.0000 </r>
       <r>  -24.4145    1.0000 </r>
       <r>  -24.4101    1.0000 </r>
       <r>  -24.0282    1.0000 </r>
       <r>  -24.0275    1.0000 </r>
       <r>  -24.0236    1.0000 </r>
       <r>  -23.5967    1.0000 </r>
       <r>  -23.5921    1.0000 </r>
       <r>  -23.5905    1.0000 </r>
       <r>  -22.4903    1.0000 </r>
       <r>  -22.4770    1.0000 </r>
       <r>  -20.8884    1.0000 </r>
       <r>  -20.8859    1.0000 </r>
       <r>  -20.8764    1.0000 </r>
       <r>  -20.5797    1.0000 </r>
       <r>  -20.5779    1.0000 </r>
       <r>  -20.5238    1.0000 </r>
       <r>  -20.5223    1.0000 </r>
       <r>  -20.4136    1.0000 </r>
       <r>  -20.2468    1.0000 </r>
       <r>  -19.9763    1.0000 </r>
       <r>  -19.9752    1.0000 </r>
       <r>  -19.6962    1.0000 </r>
       <r>  -19.6948    1.0000 </r>
       <r>  -19.1194    1.0000 </r>
       <r>  -18.9156    1.0000 </r>
       <r>  -18.9137    1.0000 </r>
       <r>  -17.8650    1.0000 </r>
       <r>  -17.8547    1.0000 </r>
       <r>  -17.8521    1.0000 </r>
       <r>  -17.5349    1.0000 </r>
       <r>  -17.5142    1.0000 </r>
       <r>  -17.5115    1.0000 </r>
       <r>  -16.9134    1.0000 </r>
       <r>  -16.9117    1.0000 </r>
       <r>  -16.6998    1.0000 </r>
       <r>  -16.4361    1.0000 </r>
       <r>  -16.4345    1.0000 </r>
       <r>  -16.3598    1.0000 </r>
       <r>  -16.3445    1.0000 </r>
       <r>  -16.3408    1.0000 </r>
       <r>  -16.0389    1.0000 </r>
       <r>  -15.7826    1.0000 </r>
       <r>  -15.7799    1.0000 </r>
       <r>  -15.6091    1.0000 </r>
       <r>  -15.6080    1.0000 </r>
       <r>  -15.2948    1.0000 </r>
       <r>  -15.2557    1.0000 </r>
       <r>  -14.9171    1.0000 </r>
       <r>  -14.9152    1.0000 </r>
       <r>  -14.7293    1.0000 </r>
       <r>  -14.7275    1.0000 </r>
       <r>  -14.6823    1.0000 </r>
       <r>  -14.4862    1.0000 </r>
       <r>  -14.2217    1.0000 </r>
       <r>  -14.2203    1.0000 </r>
       <r>  -13.9709    1.0000 </r>
       <r>  -13.9701    1.0000 </r>
       <r>  -13.8755    1.0000 </r>
       <r>  -13.7689    1.0000 </r>
       <r>  -13.3408    1.0000 </r>
       <r>  -13.3394    1.0000 </r>
       <r>  -13.3022    1.0000 </r>
       <r>  -13.0926    1.0000 </r>
       <r>  -12.9211    1.0000 </r>
       <r>  -12.9194    1.0000 </r>
       <r>  -12.8142    1.0000 </r>
       <r>  -12.5530    1.0000 </r>
       <r>  -12.5183    1.0000 </r>
       <r>  -12.5168    1.0000 </r>
       <r>  -12.4792    1.0000 </r>
       <r>  -12.2232    1.0000 </r>
       <r>  -12.2208    1.0000 </r>
       <r>  -12.1869    1.0000 </r>
       <r>  -12.1001    1.0000 </r>
       <r>  -11.9591    1.0000 </r>
       <r>  -11.9545    1.0000 </r>
       <r>  -11.9316    1.0000 </r>
       <r>  -11.9268    1.0000 </r>
       <r>  -11.9105    1.0000 </r>
       <r>  -11.6818    1.0000 </r>
       <r>  -11.6291    1.0000 </r>
       <r>  -11.6269    1.0000 </r>
       <r>  -11.4949    1.0000 </r>
       <r>  -11.4707    1.0000 </r>
       <r>  -11.4678    1.0000 </r>
       <r>  -11.3146    1.0000 </r>
       <r>  -11.3101    1.0000 </r>
       <r>  -11.2593    1.0000 </r>
       <r>  -11.2367    1.0000 </r>
       <r>  -11.0752    1.0000 </r>
       <r>  -11.0713    1.0000 </r>
       <r>  -11.0538    1.0000 </r>
       <r>  -11.0510    1.0000 </r>
       <r>  -10.9683    1.0000 </r>
       <r>  -10.7394    1.0000 </r>
       <r>  -10.7352    1.0000 </r>
       <r>  -10.7279    1.0000 </r>
       <r>  -10.6739    1.0000 </r>
       <r>  -10.6705    1.0000 </r>
       <r>  -10.6200    1.0000 </r>
       <r>  -10.6172    1.0000 </r>
       <r>  -10.5925    1.0000 </r>
       <r>  -10.5431    1.0000 </r>
       <r>  -10.4746    1.0000 </r>
       <r>  -10.4655    1.0000 </r>
       <r>  -10.4615    1.0000 </r>
       <r>  -10.4379    1.0000 </r>
       <r>  -10.4111    1.0000 </r>
       <r>  -10.3294    1.0000 </r>
       <r>  -10.3277    1.0000 </r>
       <r>  -10.2104    1.0000 </r>
       <r>  -10.2070    1.0000 </r>
       <r>  -10.1917    1.0000 </r>
       <r>  -10.1860    1.0000 </r>
       <r>  -10.1844    1.0000 </r>
       <r>   -9.8131    1.0000 </r>
       <r>   -9.7665    1.0000 </r>
       <r>   -9.7646    1.0000 </r>
       <r>   -9.7610    1.0000 </r>
       <r>   -9.6595    1.0000 </r>
       <r>   -9.6078    1.0000 </r>
       <r>   -9.6049    1.0000 </r>
       <r>   -9.5528    1.0000 </r>
       <r>   -9.5515    1.0000 </r>
       <r>   -9.5351    1.0000 </r>
       <r>   -9.4962    1.0000 </r>
       <r>   -9.4936    1.0000 </r>
       <r>   -9.3143    1.0000 </r>
       <r>   -9.3119    1.0000 </r>
       <r>   -9.2214    1.0000 </r>
       <r>   -8.9288    1.0000 </r>
       <r>   -8.9264    1.0000 </r>
       <r>   -8.6826    1.0000 </r>
       <r>   -8.3576    1.0000 </r>
       <r>   -8.3551    1.0000 </r>
       <r>   -8.2416    1.0000 </r>
       <r>   -7.5862    1.0000 </r>
       <r>   -7.5826    1.0000 </r>
       <r>   -7.5811    1.0000 </r>
       <r>   -7.4237    1.0000 </r>
       <r>   -7.4229    1.0000 </r>
       <r>   -7.3861    1.0000 </r>
       <r>   -7.3824    1.0000 </r>
       <r>   -7.3328    1.0000 </r>
       <r>   -7.3220    1.0000 </r>
       <r>   -7.3210    1.0000 </r>
       <r>   -6.9587    1.0000 </r>
       <r>   -6.9515    1.0000 </r>
       <r>   -6.9474    1.0000 </r>
       <r>   -6.7860    1.0000 </r>
       <r>   -6.7475    1.0000 </r>
       <r>   -6.7467    1.0000 </r>
       <r>   -6.7372    1.0000 </r>
       <r>   -6.7000    1.0000 </r>
       <r>   -6.6295    1.0000 </r>
       <r>   -6.6272    1.0000 </r>
       <r>   -6.4878    1.0000 </r>
       <r>   -6.4849    1.0000 </r>
       <r>   -6.4383    1.0000 </r>
       <r>   -6.3442    1.0000 </r>
       <r>   -6.3412    1.0000 </r>
       <r>   -5.9254    1.0000 </r>
       <r>   -5.9191    1.0000 </r>
       <r>   -5.9133    1.0000 </r>
       <r>   -5.8439    1.0000 </r>
       <r>   -5.8266    1.0000 </r>
       <r>   -5.8241    1.0000 </r>
       <r>   -5.6830    1.0000 </r>
       <r>   -5.6794    1.0000 </r>
       <r>   -5.6770    1.0000 </r>
       <r>   -4.2008    0.0000 </r>
       <r>   -4.1975    0.0000 </r>
       <r>   -4.1949    0.0000 </r>
       <r>   -3.3019    0.0000 </r>
       <r>   -3.2995    0.0000 </r>
       <r>   -3.0911    0.0000 </r>
       <r>   -3.0895    0.0000 </r>
       <r>   -2.9075    0.0000 </r>
       <r>   -2.4956    0.0000 </r>
       <r>   -2.4942    0.0000 </r>
       <r>   -2.4900    0.0000 </r>
       <r>   -2.4682    0.0000 </r>
       <r>   -2.4675    0.0000 </r>
       <r>   -2.0307    0.0000 </r>
       <r>   -1.7970    0.0000 </r>
       <r>   -1.3737    0.0000 </r>
       <r>   -1.3723    0.0000 </r>
       <r>   -1.0777    0.0000 </r>
       <r>   -1.0141    0.0000 </r>
       <r>   -1.0108    0.0000 </r>
       <r>   -0.9705    0.0000 </r>
       <r>   -0.9264    0.0000 </r>
       <r>   -0.6136    0.0000 </r>
       <r>   -0.5833    0.0000 </r>
       <r>   -0.5817    0.0000 </r>
       <r>   -0.5461    0.0000 </r>
       <r>   -0.5427    0.0000 </r>
       <r>   -0.1197    0.0000 </r>
       <r>   -0.1159    0.0000 </r>
       <r>   -0.0707    0.0000 </r>
       <r>   -0.0084    0.0000 </r>
       <r>   -0.0070    0.0000 </r>
       <r>    0.0626    0.0000 </r>
       <r>    0.0693    0.0000 </r>
       <r>    0.0776    0.0000 </r>
       <r>    0.1438    0.0000 </r>
       <r>    0.2241    0.0000 </r>
       <r>    0.3180    0.0000 </r>
       <r>    0.3192    0.0000 </r>
       <r>    0.3200    0.0000 </r>
       <r>    0.4037    0.0000 </r>
       <r>    0.4038    0.0000 </r>
       <r>    0.4237    0.0000 </r>
       <r>    0.4253    0.0000 </r>
       <r>    0.5409    0.0000 </r>
       <r>    0.5693    0.0000 </r>
       <r>    0.6046    0.0000 </r>
       <r>    0.6467    0.0000 </r>
       <r>    0.6494    0.0000 </r>
       <r>    0.6582    0.0000 </r>
       <r>    0.6743    0.0000 </r>
       <r>    0.6767    0.0000 </r>
       <r>    0.7259    0.0000 </r>
       <r>    0.7397    0.0000 </r>
      </set>
      <set comment="kpoint 3">
       <r>  -26.7159    1.0000 </r>
       <r>  -26.7127    1.0000 </r>
       <r>  -26.7114    1.0000 </r>
       <r>  -26.6865    1.0000 </r>
       <r>  -26.6753    1.0000 </r>
       <r>  -26.6724    1.0000 </r>
       <r>  -26.6695    1.0000 </r>
       <r>  -26.6611    1.0000 </r>
       <r>  -26.6588    1.0000 </r>
       <r>  -26.0400    1.0000 </r>
       <r>  -26.0341    1.0000 </r>
       <r>  -26.0323    1.0000 </r>
       <r>  -24.5563    1.0000 </r>
       <r>  -24.5545    1.0000 </r>
       <r>  -24.5509    1.0000 </r>
       <r>  -24.4174    1.0000 </r>
       <r>  -24.4145    1.0000 </r>
       <r>  -24.4101    1.0000 </r>
       <r>  -24.0282    1.0000 </r>
       <r>  -24.0275    1.0000 </r>
       <r>  -24.0236    1.0000 </r>
       <r>  -23.5967    1.0000 </r>
       <r>  -23.5921    1.0000 </r>
       <r>  -23.5905    1.0000 </r>
       <r>  -22.4903    1.0000 </r>
       <r>  -22.4770    1.0000 </r>
       <r>  -20.8883    1.0000 </r>
       <r>  -20.8859    1.0000 </r>
       <r>  -20.8764    1.0000 </r>
       <r>  -20.5797    1.0000 </r>
       <r>  -20.5779    1.0000 </r>
       <r>  -20.5239    1.0000 </r>
       <r>  -20.5223    1.0000 </r>
       <r>  -20.4131    1.0000 </r>
       <r>  -20.2479    1.0000 </r>
       <r>  -19.9763    1.0000 </r>
       <r>  -19.9736    1.0000 </r>
       <r>  -19.6967    1.0000 </r>
       <r>  -19.6955    1.0000 </r>
       <r>  -19.1182    1.0000 </r>
       <r>  -18.9157    1.0000 </r>
       <r>  -18.9144    1.0000 </r>
       <r>  -17.8649    1.0000 </r>
       <r>  -17.8547    1.0000 </r>
       <r>  -17.8521    1.0000 </r>
       <r>  -17.5348    1.0000 </r>
       <r>  -17.5142    1.0000 </r>
       <r>  -17.5115    1.0000 </r>
       <r>  -16.9128    1.0000 </r>
       <r>  -16.9115    1.0000 </r>
       <r>  -16.7011    1.0000 </r>
       <r>  -16.4361    1.0000 </r>
       <r>  -16.4345    1.0000 </r>
       <r>  -16.3662    1.0000 </r>
       <r>  -16.3445    1.0000 </r>
       <r>  -16.3333    1.0000 </r>
       <r>  -16.0393    1.0000 </r>
[...]
       <r>   -24.1597     0.0000    36.0000 </r>
       <r>   -24.0589     0.0002    36.0000 </r>
       <r>   -23.9581    59.5329    42.0000 </r>
       <r>   -23.8573     0.0000    42.0000 </r>
       <r>   -23.7565     0.0000    42.0000 </r>
       <r>   -23.6557     0.0000    42.0000 </r>
       <r>   -23.5550    59.5331    48.0000 </r>
       <r>   -23.4542     0.0000    48.0000 </r>
       <r>   -23.3534     0.0000    48.0000 </r>
       <r>   -23.2526     0.0000    48.0000 </r>
       <r>   -23.1518     0.0000    48.0000 </r>
       <r>   -23.0510     0.0000    48.0000 </r>
       <r>   -22.9503     0.0000    48.0000 </r>
       <r>   -22.8495     0.0000    48.0000 </r>
       <r>   -22.7487     0.0000    48.0000 </r>
       <r>   -22.6479     0.0000    48.0000 </r>
       <r>   -22.5471     0.0000    48.0000 </r>
       <r>   -22.4463    39.6886    52.0000 </r>
       <r>   -22.3456     0.0000    52.0000 </r>
       <r>   -22.2448     0.0000    52.0000 </r>
       <r>   -22.1440     0.0000    52.0000 </r>
       <r>   -22.0432     0.0000    52.0000 </r>
       <r>   -21.9424     0.0000    52.0000 </r>
       <r>   -21.8416     0.0000    52.0000 </r>
       <r>   -21.7408     0.0000    52.0000 </r>
       <r>   -21.6401     0.0000    52.0000 </r>
       <r>   -21.5393     0.0000    52.0000 </r>
       <r>   -21.4385     0.0000    52.0000 </r>
       <r>   -21.3377     0.0000    52.0000 </r>
       <r>   -21.2369     0.0000    52.0000 </r>
       <r>   -21.1361     0.0000    52.0000 </r>
       <r>   -21.0354     0.0000    52.0000 </r>
       <r>   -20.9346     0.0000    52.0000 </r>
       <r>   -20.8338    59.5331    58.0000 </r>
       <r>   -20.7330     0.0000    58.0000 </r>
       <r>   -20.6322     0.0000    58.0000 </r>
       <r>   -20.5314    47.1081    62.7478 </r>
       <r>   -20.4306     0.0206    66.0021 </r>
       <r>   -20.3299    16.5562    68.0021 </r>
       <r>   -20.2291    16.1919    69.9988 </r>
       <r>   -20.1283     0.0000    70.0000 </r>
       <r>   -20.0275     0.0000    70.0000 </r>
       <r>   -19.9267    26.6742    72.6883 </r>
       <r>   -19.8259    11.3725    74.0128 </r>
       <r>   -19.7252    11.2324    75.4321 </r>
       <r>   -19.6244    22.8204    78.0000 </r>
       <r>   -19.5236     0.0000    78.0000 </r>
       <r>   -19.4228     0.0000    78.0000 </r>
       <r>   -19.3220     0.0000    78.0000 </r>
       <r>   -19.2212     0.0000    78.0000 </r>
       <r>   -19.1205     1.1335    78.1142 </r>
       <r>   -19.0197    12.8384    79.7939 </r>
       <r>   -18.9189    21.4323    82.3267 </r>
       <r>   -18.8181     0.0000    84.0000 </r>
       <r>   -18.7173     0.0000    84.0000 </r>
       <r>   -18.6165     0.0000    84.0000 </r>
       <r>   -18.5157     0.0000    84.0000 </r>
       <r>   -18.4150     0.0000    84.0000 </r>
       <r>   -18.3142     0.0000    84.0000 </r>
       <r>   -18.2134     0.0000    84.0000 </r>
       <r>   -18.1126     0.0000    84.0000 </r>
       <r>   -18.0118     0.0000    84.0000 </r>
       <r>   -17.9110     0.0000    84.0000 </r>
       <r>   -17.8103    59.5331    90.0000 </r>
       <r>   -17.7095     0.0000    90.0000 </r>
       <r>   -17.6087     0.0000    90.0000 </r>
       <r>   -17.5079    51.7347    95.2140 </r>
       <r>   -17.4071     0.0000    96.0000 </r>
       <r>   -17.3063     0.0000    96.0000 </r>
       <r>   -17.2056     0.0000    96.0000 </r>
       <r>   -17.1048     0.0000    96.0000 </r>
       <r>   -17.0040     0.0000    96.0000 </r>
       <r>   -16.9032    21.8431    98.2014 </r>
       <r>   -16.8024    13.7694   100.1544 </r>
       <r>   -16.7016     9.6285   101.8371 </r>
       <r>   -16.6008     0.0000   102.0000 </r>
       <r>   -16.5001     0.0000   102.0000 </r>
       <r>   -16.3993    54.0659   107.4490 </r>
       <r>   -16.2985    26.4941   110.4035 </r>
       <r>   -16.1977    13.7358   111.9510 </r>
       <r>   -16.0969     0.0006   112.0001 </r>
       <r>   -15.9961    19.8437   114.0000 </r>
       <r>   -15.8954     0.0000   114.0000 </r>
       <r>   -15.7946     0.5446   114.0549 </r>
       <r>   -15.6938     0.0000   118.0000 </r>
       <r>   -15.5930    39.5409   121.9851 </r>
       <r>   -15.4922     0.0000   122.0000 </r>
       <r>   -15.3914     0.0000   122.0000 </r>
       <r>   -15.2907     6.3186   122.6368 </r>
       <r>   -15.1899    19.8440   126.0000 </r>
       <r>   -15.0891     0.0000   126.0000 </r>
       <r>   -14.9883     0.0000   126.0000 </r>
       <r>   -14.8875    27.2544   128.7468 </r>
       <r>   -14.7867    19.7723   131.0595 </r>
       <r>   -14.6859    27.9236   134.1143 </r>
       <r>   -14.5852     8.9194   136.0000 </r>
       <r>   -14.4844     2.9618   136.2985 </r>
       <r>   -14.3836     0.0000   138.0000 </r>
       <r>   -14.2828     0.0000   138.0000 </r>
       <r>   -14.1820    39.4444   141.9754 </r>
       <r>   -14.0812     0.0000   142.0000 </r>
       <r>   -13.9805    19.6113   143.9765 </r>
       <r>   -13.8797     0.6076   146.0612 </r>
       <r>   -13.7789    27.3338   149.1882 </r>
       <r>   -13.6781     0.0000   150.0000 </r>
       <r>   -13.5773     0.0000   150.0000 </r>
       <r>   -13.4765     0.0000   150.0000 </r>
       <r>   -13.3757     0.0000   150.0000 </r>
       <r>   -13.2750    59.5329   156.0000 </r>
       <r>   -13.1742     0.0000   156.0000 </r>
       <r>   -13.0734     7.3800   156.7438 </r>
       <r>   -12.9726    16.7686   159.2235 </r>
       <r>   -12.8718    25.4664   162.0000 </r>
       <r>   -12.7710     5.8182   162.5864 </r>
       <r>   -12.6703    12.2371   164.0000 </r>
       <r>   -12.5695    15.1102   165.5229 </r>
       <r>   -12.4687    58.9081   171.9370 </r>
       <r>   -12.3679     0.0000   172.0000 </r>
       <r>   -12.2671     0.0000   172.0000 </r>
       <r>   -12.1663    59.5195   177.9986 </r>
       <r>   -12.0656    10.5072   179.0590 </r>
       <r>   -11.9648    21.8623   182.2034 </r>
       <r>   -11.8640    59.5331   190.0000 </r>
       <r>   -11.7632     0.0000   190.0000 </r>
       <r>   -11.6624    19.7468   191.9902 </r>
       <r>   -11.5616    39.6887   196.0000 </r>
       <r>   -11.4608    55.9422   201.6381 </r>
       <r>   -11.3601     1.8522   202.1867 </r>
       <r>   -11.2593    28.5666   206.1791 </r>
       <r>   -11.1585    19.8420   210.0000 </r>
       <r>   -11.0577    45.9643   214.6325 </r>
       <r>   -10.9569    29.9277   219.9831 </r>
       <r>   -10.8561     0.0000   220.0000 </r>
       <r>   -10.7554     0.2764   220.0279 </r>
       <r>   -10.6546    53.9019   229.4326 </r>
       <r>   -10.5538    55.8501   236.7623 </r>
       <r>   -10.4530    51.3110   243.1713 </r>
       <r>   -10.3522    19.8559   248.0012 </r>
       <r>   -10.2514    39.9543   252.0279 </r>
       <r>   -10.1507    89.6293   262.0000 </r>
       <r>   -10.0499     0.0000   262.0000 </r>
       <r>    -9.9491     0.0000   262.0000 </r>
       <r>    -9.8483     0.0000   262.0000 </r>
       <r>    -9.7475    69.2076   268.9750 </r>
       <r>    -9.6467    21.0705   271.9903 </r>
       <r>    -9.5459    74.9715   279.5559 </r>
       <r>    -9.4452    50.5962   286.0000 </r>
       <r>    -9.3444     0.0002   286.0000 </r>
       <r>    -9.2436    52.9681   291.3384 </r>
       <r>    -9.1428     1.9824   292.0000 </r>
       <r>    -9.0420     0.0000   292.0000 </r>
       <r>    -8.9412     0.6685   292.0674 </r>
       <r>    -8.8405     9.3104   295.2384 </r>
       <r>    -8.7397    14.2206   297.1333 </r>
       <r>    -8.6389     6.6145   298.0000 </r>
       <r>    -8.5381     0.0000   298.0000 </r>
       <r>    -8.4373     0.0000   298.0000 </r>
       <r>    -8.3365    25.9300   300.6133 </r>
       <r>    -8.2358    28.6885   303.9248 </r>
       <r>    -8.1350     0.0000   304.0000 </r>
       <r>    -8.0342     0.0000   304.0000 </r>
       <r>    -7.9334     0.0000   304.0000 </r>
       <r>    -7.8326     0.0000   304.0000 </r>
       <r>    -7.7318     0.0000   304.0000 </r>
       <r>    -7.6310     0.0000   304.0000 </r>
       <r>    -7.5303    59.5331   310.0000 </r>
       <r>    -7.4295     7.1508   310.7207 </r>
       <r>    -7.3287    59.3306   319.9796 </r>
       <r>    -7.2279     0.0000   324.0000 </r>
       <r>    -7.1271     0.0000   324.0000 </r>
       <r>    -7.0263     0.0000   324.0000 </r>
       <r>    -6.9256    59.5185   329.9985 </r>
       <r>    -6.8248     0.0000   330.0000 </r>
       <r>    -6.7240    78.2968   337.8911 </r>
       <r>    -6.6232    31.8555   342.6442 </r>
       <r>    -6.5224     0.0120   344.0012 </r>
       <r>    -6.4216    49.6321   349.3027 </r>
       <r>    -6.3208    39.6727   353.9984 </r>
       <r>    -6.2201     0.0000   354.0000 </r>
       <r>    -6.1193     0.0000   354.0000 </r>
       <r>    -6.0185     0.0000   354.0000 </r>
       <r>    -5.9177    33.6700   357.3934 </r>
       <r>    -5.8169    56.3513   365.6793 </r>
       <r>    -5.7161     0.0000   366.0000 </r>
       <r>    -5.6154    59.5331   372.0000 </r>
       <r>    -5.5146     0.0000   372.0000 </r>
       <r>    -5.4138     0.0000   372.0000 </r>
       <r>    -5.3130     0.0000   372.0000 </r>
       <r>    -5.2122     0.0000   372.0000 </r>
       <r>    -5.1114     0.0000   372.0000 </r>
       <r>    -5.0107     0.0000   372.0000 </r>
       <r>    -4.9099     0.0000   372.0000 </r>
       <r>    -4.8091     0.0000   372.0000 </r>
       <r>    -4.7083     0.0000   372.0000 </r>
       <r>    -4.6075     0.0000   372.0000 </r>
       <r>    -4.5067     0.0000   372.0000 </r>
       <r>    -4.4059     0.0000   372.0000 </r>
       <r>    -4.3052     0.0000   372.0000 </r>
       <r>    -4.2044    11.0867   373.1174 </r>
       <r>    -4.1036     0.0000   378.0000 </r>
       <r>    -4.0028     0.0000   378.0000 </r>
       <r>    -3.9020     0.0000   378.0000 </r>
       <r>    -3.8012     0.0000   378.0000 </r>
       <r>    -3.7005     0.0000   378.0000 </r>
       <r>    -3.5997     0.0000   378.0000 </r>
       <r>    -3.4989     0.0000   378.0000 </r>
       <r>    -3.3981     0.0000   378.0000 </r>
       <r>    -3.2973    16.5987   379.6729 </r>
       <r>    -3.1965    19.4366   382.7256 </r>
       <r>    -3.0958    11.0493   384.2469 </r>
       <r>    -2.9950     0.0000   386.0000 </r>
       <r>    -2.8942     2.5535   386.2574 </r>
       <r>    -2.7934     4.0153   386.8380 </r>
       <r>    -2.6926     9.5541   387.8963 </r>
       <r>    -2.5918     9.5566   389.0632 </r>
       <r>    -2.4910    34.2774   392.6546 </r>
       <r>    -2.3903    21.4818   398.0000 </r>
       <r>    -2.2895     0.0000   398.0000 </r>
       <r>    -2.1887     0.0000   398.0000 </r>
       <r>    -2.0879     0.0000   398.0000 </r>
       <r>    -1.9871     5.9204   398.5967 </r>
       <r>    -1.8863    12.5199   399.9952 </r>
       <r>    -1.7856    18.0531   401.9862 </r>
       <r>    -1.6848     0.0000   402.0000 </r>
       <r>    -1.5840     0.0000   402.0000 </r>
       <r>    -1.4832     0.0000   402.0000 </r>
       <r>    -1.3824     2.2668   402.2285 </r>
       <r>    -1.2816    15.0274   406.0146 </r>
       <r>    -1.1809     9.7204   407.3131 </r>
       <r>    -1.0801     4.5655   407.8935 </r>
       <r>    -0.9793    36.2697   411.6554 </r>
       <r>    -0.8785     5.3086   414.5350 </r>
       <r>    -0.7777     8.4744   415.4875 </r>
       <r>    -0.6769     9.8869   416.9964 </r>
       <r>    -0.5761    38.5865   421.1223 </r>
       <r>    -0.4754    39.6887   426.0000 </r>
       <r>    -0.3746     0.0000   426.0000 </r>
       <r>    -0.2738     0.0000   426.0000 </r>
       <r>    -0.1730     0.0000   426.0000 </r>
       <r>    -0.0722    48.8871   430.9271 </r>
       <r>     0.0286    39.6888   436.0000 </r>
       <r>     0.1293    64.9045   442.5414 </r>
       <r>     0.2301    18.3865   445.8531 </r>
       <r>     0.3309    43.6755   450.4018 </r>
       <r>     0.4317    55.1444   457.5577 </r>
       <r>     0.5325    22.9830   461.2164 </r>
       <r>     0.6333    54.8378   467.5271 </r>
       <r>     0.7341    84.2806   477.4611 </r>
       <r>     0.8348    11.2441   480.0000 </r>
       <r>     0.9356     0.0000   480.0000 </r>
       <r>     1.0364     0.0000   480.0000 </r>
       <r>     1.1372     0.0000   480.0000 </r>
       <r>     1.2380     0.0000   480.0000 </r>
       <r>     1.3388     0.0000   480.0000 </r>
       <r>     1.4395     0.0000   480.0000 </r>
       <r>     1.5403     0.0000   480.0000 </r>
       <r>     1.6411     0.0000   480.0000 </r>
       <r>     1.7419     0.0000   480.0000 </r>
       <r>     1.8427     0.0000   480.0000 </r>
       <r>     1.9435     0.0000   480.0000 </r>
       <r>     2.0442     0.0000   480.0000 </r>
       <r>     2.1450     0.0000   480.0000 </r>
      </set>
     </set>
    </array>
   </total>
  </dos>
 </calculation>
 <structure name="finalpos" >
  <crystal>
   <varray name="basis" >
    <v>      29.81673087       0.04269933       0.00000000 </v>
    <v>     -14.87138675      25.83081799       0.00000000 </v>
    <v>       0.00000000       0.00000000      20.00000000 </v>
   </varray>
   <i name="volume">  15416.51092671 </i>
   <varray name="rec_basis" >
    <v>       0.03351059       0.01929280       0.00000000 </v>
    <v>      -0.00005539       0.03868156       0.00000000 </v>
    <v>       0.00000000       0.00000000       0.05000000 </v>
   </varray>
  </crystal>
  <varray name="positions" >
   <v>       0.45012786       0.78335682       0.53059854 </v>
   <v>       0.32180864       0.54069510       0.52986654 </v>
   <v>       0.20748382       0.66932257       0.53329816 </v>
   <v>       0.53754824       0.21053300       0.45360700 </v>
   <v>       0.66352062       0.45462254       0.45365004 </v>
   <v>       0.78146420       0.32817908       0.45546771 </v>
   <v>       0.55563516       0.94198048       0.62582880 </v>
   <v>       0.60872659       0.04903798       0.63079100 </v>
   <v>       0.37647978       0.43589465       0.62520885 </v>
   <v>       0.42768475       0.37968989       0.62430192 </v>
   <v>       0.04810404       0.61668333       0.62547127 </v>
   <v>       0.94109254       0.56281140       0.62957857 </v>
   <v>       0.29724979       0.72938701       0.51204235 </v>
   <v>       0.42030310       0.69358928       0.50890101 </v>
   <v>       0.26187639       0.57073453       0.51042201 </v>
   <v>       0.68896230       0.26539805       0.47703480 </v>
   <v>       0.56695503       0.30292150       0.47514517 </v>
   <v>       0.72605729       0.42468974       0.47604215 </v>
   <v>       0.61524792       0.12777508       0.57855065 </v>
   <v>       0.48163435       0.86515823       0.57194573 </v>
   <v>       0.62760384       0.20359831       0.52865722 </v>
   <v>       0.50171985       0.37531314       0.57487472 </v>
   <v>       0.37211192       0.50884382       0.56965200 </v>
   <v>       0.56584878       0.36391878       0.52612402 </v>
   <v>       0.86265030       0.48956357       0.57828660 </v>
   <v>       0.12537178       0.61960783       0.57226887 </v>
   <v>       0.78729285       0.42524293       0.52895983 </v>
   <v>       0.50144696       0.12358971       0.43985924 </v>
   <v>       0.37400458       0.87765113       0.43840791 </v>
   <v>       0.35810566       0.79697825       0.47429183 </v>
   <v>       0.61288823       0.49157340       0.44031827 </v>
   <v>       0.49159286       0.61676466       0.43615050 </v>
   <v>       0.42658755       0.63237976       0.47196245 </v>
   <v>       0.86842950       0.37871872       0.44326670 </v>
   <v>       0.11404913       0.49937731       0.43988999 </v>
   <v>       0.19430849       0.56440001       0.47498310 </v>
   <v>       0.34184736       0.62709956       0.50561151 </v>
   <v>       0.28917631       0.61215101       0.50655523 </v>
   <v>       0.27364285       0.64926336       0.50721528 </v>
   <v>       0.31124006       0.70193266       0.50741671 </v>
   <v>       0.37886288       0.67962397       0.50568381 </v>
   <v>       0.35447407       0.58431120       0.51097324 </v>
   <v>       0.21838087       0.63663856       0.51385251 </v>
   <v>       0.64562034       0.36878544       0.47915024 </v>
   <v>       0.69817705       0.38337701       0.47929163 </v>
   <v>       0.71328459       0.34590164       0.48021307 </v>
   <v>       0.67547664       0.29335177       0.47984461 </v>
   <v>       0.60827361       0.31631331       0.47878223 </v>
   <v>       0.63292487       0.41166355       0.47661100 </v>
   <v>       0.76876900       0.35858364       0.47859851 </v>
   <v>       0.56307136       0.13419799       0.50770942 </v>
   <v>       0.50720590       0.02723740       0.51080879 </v>
   <v>       0.55237979       0.05377576       0.55028493 </v>
   <v>       0.58025349       0.10764953       0.54815308 </v>
   <v>       0.47773678       0.97001398       0.50997465 </v>
   <v>       0.46793184       0.88712878       0.54366400 </v>
   <v>       0.49490064       0.94111498       0.54740472 </v>
   <v>       0.54096183       0.96632667       0.59173696 </v>
   <v>       0.57109919       0.02634464       0.59400788 </v>
   <v>       0.56103297       0.42868035       0.50588563 </v>
   <v>       0.50933385       0.48414186       0.50896071 </v>
   <v>       0.49046003       0.43841450       0.54743048 </v>
   <v>       0.51676731       0.41074635       0.54527551 </v>
   <v>       0.48110420       0.51324987       0.50790085 </v>
   <v>       0.40773942       0.52264448       0.54140478 </v>
   <v>       0.43499738       0.49580255       0.54513626 </v>
   <v>       0.41452034       0.44977353       0.58956393 </v>
   <v>       0.44365785       0.41873800       0.58993221 </v>
   <v>       0.85707242       0.43040550       0.50904733 </v>
   <v>       0.96396495       0.48222635       0.51211322 </v>
   <v>       0.93701529       0.50098258       0.55074549 </v>
   <v>       0.88314785       0.47461194       0.54861382 </v>
   <v>       0.02114915       0.51041396       0.51104366 </v>
   <v>       0.10366439       0.58383404       0.54429206 </v>
   <v>       0.04969159       0.55668709       0.54792830 </v>
   <v>       0.02408357       0.57758323       0.59161171 </v>
   <v>       0.96406498       0.54760437       0.59358841 </v>
   <v>       0.36377503       0.71733714       0.50634414 </v>
   <v>       0.40642363       0.77258716       0.51214778 </v>
   <v>       0.62300294       0.27836029       0.47970802 </v>
   <v>       0.58030593       0.22291451       0.47740495 </v>
   <v>       0.51677927       0.10441215       0.47110833 </v>
   <v>       0.40901970       0.89525800       0.46944332 </v>
   <v>       0.42391223       0.86313668       0.50334807 </v>
   <v>       0.57784092       0.47556352       0.47045754 </v>
   <v>       0.47444864       0.58179738       0.46729887 </v>
   <v>       0.42748231       0.56673239       0.50119486 </v>
   <v>       0.88726848       0.41369990       0.47354356 </v>
   <v>       0.09619087       0.51670167       0.47077099 </v>
   <v>       0.12799266       0.56377931       0.50444427 </v>
   <v>       0.59304771       0.18815957       0.50462378 </v>
   <v>       0.58518289       0.39876467       0.50280414 </v>
   <v>       0.80311673       0.40610909       0.50568684 </v>
   <v>       0.49026174       0.05290300       0.47270384 </v>
   <v>       0.43471491       0.94653097       0.47214034 </v>
   <v>       0.39303593       0.80952746       0.49637558 </v>
   <v>       0.55250086       0.50185779       0.47194990 </v>
   <v>       0.50031256       0.55630084       0.47014155 </v>
   <v>       0.40453578       0.59754081       0.49436924 </v>
   <v>       0.93876004       0.43906126       0.47507155 </v>
   <v>       0.04494652       0.49096748       0.47349830 </v>
   <v>       0.18160117       0.58655243       0.49752447 </v>
  </varray>
 </structure>
</modeling>
