<?xml version="1.0" encoding="ISO-8859-1"?>
<modeling>
 <generator>
  <i name="program" type="string">vasp </i>
  <i name="version" type="string">5.4.4.18Apr17-6-g9f103f2a35  </i>
  <i name="subversion" type="string">(build Jun 07 2020 16:50:00) complex            parallel </i>
  <i name="platform" type="string">LinuxIFC </i>
  <i name="date" type="string">2023 02 20 </i>
  <i name="time" type="string">07:05:27 </i>
 </generator>
 <incar>
  <i type="string" name="SYSTEM">Simulation for cell shape cell volume r</i>
  <i type="int" name="ISTART">     1</i>
  <i type="string" name="PREC">high</i>
  <i type="string" name="ALGO">48</i>
  <i type="int" name="ICHARG">    11</i>
  <i type="int" name="NELM">   200</i>
  <i type="int" name="IBRION">    -1</i>
  <i name="EDIFF">      0.00001000</i>
  <i name="EDIFFG">     -0.01000000</i>
  <i type="int" name="NSW">     0</i>
  <i type="int" name="ISIF">     2</i>
  <i name="ENCUT">    500.00000000</i>
  <i name="POTIM">      0.30000000</i>
  <i type="string" name="LREAL">A</i>
  <i type="int" name="ISMEAR">     0</i>
  <i name="SIGMA">      0.01000000</i>
  <i type="int" name="NWRITE">     0</i>
  <i type="logical" name="LWAVE"> F  </i>
  <i type="logical" name="LCHARG"> F  </i>
  <v type="int" name="KPOINT_BSE">    -1     0     0     0</v>
  <i type="int" name="NELM">   200</i>
  <i type="string" name="GGA">PE</i>
 </incar>
 <structure name="primitive_cell" >
  <crystal>
   <varray name="basis" >
    <v>      31.93629196       0.00883397       0.00000000 </v>
    <v>     -15.96039400      27.65247220       0.00000000 </v>
    <v>       0.00000000       0.00000000      20.00000000 </v>
   </varray>
   <i name="volume">  17665.16838158 </i>
   <varray name="rec_basis" >
    <v>       0.03130734       0.01806990       0.00000000 </v>
    <v>      -0.00001000       0.03615736       0.00000000 </v>
    <v>       0.00000000       0.00000000       0.05000000 </v>
   </varray>
  </crystal>
  <varray name="positions" >
   <v>       0.33343191      -0.39080700      -0.47185344 </v>
   <v>       0.30322081      -0.40231731      -0.43729308 </v>
   <v>       0.35877610      -0.41572324      -0.47499748 </v>
   <v>       0.34630521      -0.35073200       0.48651578 </v>
   <v>       0.34806086      -0.44700128      -0.44266947 </v>
   <v>       0.38525677      -0.33608387       0.44209424 </v>
   <v>       0.39737912      -0.40182485       0.47999382 </v>
   <v>       0.31994709      -0.32588444       0.48895274 </v>
   <v>       0.41016160      -0.36144492       0.43890357 </v>
   <v>       0.26521025      -0.40564478       0.41682621 </v>
   <v>       0.26885911      -0.35228894       0.48678430 </v>
   <v>       0.24445202      -0.39356053       0.44619137 </v>
   <v>       0.39569548      -0.30477164       0.41001490 </v>
   <v>       0.39911584      -0.26626047      -0.44207866 </v>
   <v>       0.34483224      -0.27476425       0.48618564 </v>
   <v>       0.42346848      -0.42898309       0.47587500 </v>
   <v>       0.44040785      -0.34957635       0.40425000 </v>
   <v>       0.38639333      -0.24757307      -0.47472039 </v>
   <v>       0.24163667      -0.33740629      -0.47507207 </v>
   <v>       0.43084627      -0.43256769      -0.41644624 </v>
   <v>       0.19421393      -0.41876802       0.44340805 </v>
   <v>       0.26028923      -0.30543064      -0.44346454 </v>
   <v>       0.43849516      -0.44282102      -0.46528329 </v>
   <v>       0.43454052      -0.44237528       0.41522735 </v>
   <v>       0.32874690      -0.25037225       0.44417561 </v>
   <v>       0.42321381      -0.43362506       0.36819815 </v>
   <v>       0.17585106      -0.45086164       0.41185359 </v>
   <v>       0.19140722      -0.36300445      -0.47790499 </v>
   <v>       0.29634924      -0.27115413       0.41399758 </v>
   <v>       0.16662384      -0.40400162       0.48097616 </v>
   <v>       0.41116487      -0.19732560      -0.47777365 </v>
   <v>       0.46242717      -0.46670761      -0.46449380 </v>
   <v>       0.44356085      -0.17682580      -0.44741246 </v>
   <v>       0.17092572      -0.35060108      -0.44842475 </v>
   <v>       0.35394016      -0.20012958       0.44113665 </v>
   <v>       0.45909297      -0.46879078       0.41385627 </v>
   <v>       0.39566718      -0.17254918       0.47985367 </v>
   <v>       0.47296797      -0.47996127       0.47634379 </v>
   <v>       0.11341428      -0.43046951       0.47704788 </v>
   <v>       0.10253597      -0.43066656      -0.41553914 </v>
   <v>       0.34083250      -0.18173623       0.40852300 </v>
   <v>       0.08459555      -0.44161936      -0.46428296 </v>
   <v>       0.10888130      -0.43760291       0.36957808 </v>
   <v>       0.46941114      -0.48500076       0.35248092 </v>
   <v>       0.45806077      -0.47622248       0.30552850 </v>
   <v>       0.08888345      -0.44574534       0.41662478 </v>
   <v>       0.42248586      -0.11931165       0.47596972 </v>
   <v>       0.49903316       0.49354985       0.47630110 </v>
   <v>       0.43068328      -0.10862336      -0.41636027 </v>
   <v>       0.43880387      -0.09059524      -0.46512049 </v>
   <v>       0.42232443      -0.11462900       0.36833371 </v>
   <v>      -0.48568699       0.48492274      -0.46479354 </v>
   <v>       0.49256185       0.48881388       0.35256297 </v>
   <v>       0.03679198      -0.46555914      -0.46335087 </v>
   <v>       0.43311489      -0.09468302       0.41548847 </v>
   <v>       0.03794765      -0.47053919       0.41522392 </v>
   <v>      -0.49203332       0.47757042       0.41394173 </v>
   <v>       0.01294815      -0.48018487       0.47761328 </v>
   <v>      -0.49992083       0.47627964       0.30567296 </v>
   <v>       0.03159248      -0.47692529       0.30682018 </v>
   <v>       0.46264003      -0.04278940      -0.46402442 </v>
   <v>       0.01144816      -0.48506359       0.35369076 </v>
   <v>      -0.46167985       0.46111126      -0.46582595 </v>
   <v>       0.45928605      -0.04372616       0.41428715 </v>
   <v>      -0.46708290       0.45154798       0.41524540 </v>
   <v>      -0.45020632       0.45460348      -0.41716775 </v>
   <v>       0.47322019      -0.01884616       0.47689464 </v>
   <v>      -0.03959975       0.49371551       0.47748832 </v>
   <v>      -0.45107614       0.44294195       0.47553006 </v>
   <v>       0.46164227      -0.03714019       0.30578189 </v>
   <v>      -0.45937612       0.43929105       0.36822159 </v>
   <v>       0.47264704      -0.01709244       0.35282172 </v>
   <v>      -0.03785217       0.49189128       0.35346755 </v>
   <v>      -0.06357290       0.48232189      -0.46342482 </v>
   <v>      -0.06446885       0.48072077       0.41484007 </v>
   <v>       0.49971001       0.03370180       0.47698156 </v>
   <v>      -0.05790111       0.48126983       0.30641914 </v>
   <v>      -0.42445195       0.41632439       0.47944858 </v>
   <v>       0.49896101       0.03222016       0.35289887 </v>
   <v>      -0.37059500       0.46599917      -0.45096915 </v>
   <v>      -0.48906767       0.05752342      -0.46382210 </v>
   <v>      -0.11137160       0.45847060      -0.46453907 </v>
   <v>      -0.47164648       0.35971933       0.41124856 </v>
   <v>      -0.48694163       0.05872015       0.41445014 </v>
   <v>      -0.11540862       0.45609134       0.41594103 </v>
   <v>      -0.38320523       0.43284534      -0.47987789 </v>
   <v>      -0.43940102       0.37367862       0.44250417 </v>
   <v>      -0.12941536       0.45028381      -0.41578140 </v>
   <v>      -0.49052073       0.05236351       0.30592530 </v>
   <v>      -0.14005701       0.44418337       0.47645077 </v>
   <v>      -0.13531101       0.44541986       0.36875107 </v>
   <v>      -0.46506590       0.10533549      -0.46471486 </v>
   <v>      -0.46053987       0.10967250       0.41582598 </v>
   <v>      -0.35764940       0.40815044      -0.47667895 </v>
   <v>      -0.41422546       0.34861129       0.44559763 </v>
   <v>      -0.45641569       0.12326750      -0.41587097 </v>
   <v>      -0.44919495       0.13417462       0.47645006 </v>
   <v>      -0.19768070       0.36788207      -0.44352370 </v>
   <v>      -0.19329346       0.41797755       0.48016740 </v>
   <v>      -0.45014394       0.12971417       0.36872609 </v>
   <v>      -0.32552566       0.42172295      -0.44532159 </v>
   <v>      -0.37281796       0.36566087       0.48594500 </v>
   <v>      -0.42647009       0.31554126       0.41672736 </v>
   <v>      -0.21812913       0.37894780      -0.47550754 </v>
   <v>      -0.20231411       0.46157332       0.40506830 </v>
   <v>      -0.22076722       0.43107353       0.43931704 </v>
   <v>      -0.42484518       0.28115046      -0.44025805 </v>
   <v>      -0.42215440       0.18741462       0.48047497 </v>
   <v>      -0.29177712       0.41690188       0.41043262 </v>
   <v>      -0.34660847       0.34077012       0.48866930 </v>
   <v>      -0.46925088       0.19168876      -0.44543959 </v>
   <v>      -0.36801112       0.19659642       0.40786520 </v>
   <v>      -0.41241515       0.26245152      -0.47337623 </v>
   <v>      -0.26837482       0.35362273      -0.47259476 </v>
   <v>      -0.43717098       0.21220612      -0.47637330 </v>
   <v>      -0.38080086       0.21497045       0.44106725 </v>
   <v>      -0.27100624       0.40618102       0.44225502 </v>
   <v>      -0.37138422       0.28960979       0.48657813 </v>
   <v>      -0.29544187       0.36693066       0.48619640 </v>
   <v>      -0.28715002       0.32313112      -0.43848705 </v>
   <v>      -0.35562807       0.26522362       0.44403898 </v>
   <v>      -0.32358460       0.28605081       0.41322857 </v>
  </varray>
 </structure>
 <varray name="primitive_index" >
  <v type="int" >        1 </v>
  <v type="int" >       89 </v>
  <v type="int" >        2 </v>
  <v type="int" >       14 </v>
  <v type="int" >       81 </v>
  <v type="int" >        5 </v>
  <v type="int" >        3 </v>
  <v type="int" >       74 </v>
  <v type="int" >        4 </v>
  <v type="int" >       92 </v>
  <v type="int" >       13 </v>
  <v type="int" >       22 </v>
  <v type="int" >       93 </v>
  <v type="int" >       87 </v>
  <v type="int" >       12 </v>
  <v type="int" >        7 </v>
  <v type="int" >       82 </v>
  <v type="int" >       18 </v>
  <v type="int" >       19 </v>
  <v type="int" >       85 </v>
  <v type="int" >       21 </v>
  <v type="int" >       90 </v>
  <v type="int" >       11 </v>
  <v type="int" >        8 </v>
  <v type="int" >       15 </v>
  <v type="int" >       84 </v>
  <v type="int" >       91 </v>
  <v type="int" >       24 </v>
  <v type="int" >       86 </v>
  <v type="int" >       20 </v>
  <v type="int" >       17 </v>
  <v type="int" >       73 </v>
  <v type="int" >       88 </v>
  <v type="int" >       95 </v>
  <v type="int" >       23 </v>
  <v type="int" >        9 </v>
  <v type="int" >       16 </v>
  <v type="int" >        6 </v>
  <v type="int" >       26 </v>
  <v type="int" >      121 </v>
  <v type="int" >       94 </v>
  <v type="int" >       71 </v>
  <v type="int" >       97 </v>
  <v type="int" >       10 </v>
  <v type="int" >       83 </v>
  <v type="int" >       59 </v>
  <v type="int" >       25 </v>
  <v type="int" >       64 </v>
  <v type="int" >      119 </v>
  <v type="int" >       69 </v>
  <v type="int" >       96 </v>
  <v type="int" >       80 </v>
  <v type="int" >       67 </v>
  <v type="int" >       79 </v>
  <v type="int" >       50 </v>
  <v type="int" >       60 </v>
  <v type="int" >       65 </v>
  <v type="int" >       58 </v>
  <v type="int" >      117 </v>
  <v type="int" >      114 </v>
  <v type="int" >       77 </v>
  <v type="int" >       61 </v>
  <v type="int" >       72 </v>
  <v type="int" >       51 </v>
  <v type="int" >       66 </v>
  <v type="int" >      122 </v>
  <v type="int" >       49 </v>
  <v type="int" >       55 </v>
  <v type="int" >       63 </v>
  <v type="int" >      111 </v>
  <v type="int" >      116 </v>
  <v type="int" >       52 </v>
  <v type="int" >       62 </v>
  <v type="int" >       78 </v>
  <v type="int" >       56 </v>
  <v type="int" >       46 </v>
  <v type="int" >      115 </v>
  <v type="int" >       32 </v>
  <v type="int" >       53 </v>
  <v type="int" >      109 </v>
  <v type="int" >       76 </v>
  <v type="int" >       70 </v>
  <v type="int" >      103 </v>
  <v type="int" >       47 </v>
  <v type="int" >       57 </v>
  <v type="int" >       33 </v>
  <v type="int" >       31 </v>
  <v type="int" >      120 </v>
  <v type="int" >      112 </v>
  <v type="int" >       54 </v>
  <v type="int" >      113 </v>
  <v type="int" >       68 </v>
  <v type="int" >       48 </v>
  <v type="int" >       34 </v>
  <v type="int" >       30 </v>
  <v type="int" >      118 </v>
  <v type="int" >       45 </v>
  <v type="int" >      106 </v>
  <v type="int" >       42 </v>
  <v type="int" >      110 </v>
  <v type="int" >      108 </v>
  <v type="int" >       29 </v>
  <v type="int" >      102 </v>
  <v type="int" >       43 </v>
  <v type="int" >      105 </v>
  <v type="int" >       41 </v>
  <v type="int" >      100 </v>
  <v type="int" >       37 </v>
  <v type="int" >      104 </v>
  <v type="int" >       75 </v>
  <v type="int" >      101 </v>
  <v type="int" >       98 </v>
  <v type="int" >       39 </v>
  <v type="int" >       44 </v>
  <v type="int" >       38 </v>
  <v type="int" >       36 </v>
  <v type="int" >       40 </v>
  <v type="int" >       27 </v>
  <v type="int" >       28 </v>
  <v type="int" >      107 </v>
  <v type="int" >       35 </v>
  <v type="int" >       99 </v>
 </varray>
 <kpoints>
  <generation param="listgenerated">
   <i name="divisions" type="int">      20 </i>
   <v>       0.00000000       0.00000000       0.00000000 </v>
   <v>       0.50000000       0.00000000       0.00000000 </v>
   <v>       0.33333333       0.33333333       0.00000000 </v>
   <v>       0.00000000       0.00000000       0.00000000 </v>
  </generation>
  <varray name="kpointlist" >
   <v>       0.00000000       0.00000000       0.00000000 </v>
   <v>       0.02631579       0.00000000       0.00000000 </v>
   <v>       0.05263158       0.00000000       0.00000000 </v>
   <v>       0.07894737       0.00000000       0.00000000 </v>
   <v>       0.10526316       0.00000000       0.00000000 </v>
   <v>       0.13157895       0.00000000       0.00000000 </v>
   <v>       0.15789474       0.00000000       0.00000000 </v>
   <v>       0.18421053       0.00000000       0.00000000 </v>
   <v>       0.21052632       0.00000000       0.00000000 </v>
   <v>       0.23684211       0.00000000       0.00000000 </v>
   <v>       0.26315789       0.00000000       0.00000000 </v>
   <v>       0.28947368       0.00000000       0.00000000 </v>
   <v>       0.31578947       0.00000000       0.00000000 </v>
   <v>       0.34210526       0.00000000       0.00000000 </v>
   <v>       0.36842105       0.00000000       0.00000000 </v>
   <v>       0.39473684       0.00000000       0.00000000 </v>
   <v>       0.42105263       0.00000000       0.00000000 </v>
   <v>       0.44736842       0.00000000       0.00000000 </v>
   <v>       0.47368421       0.00000000       0.00000000 </v>
   <v>       0.50000000       0.00000000       0.00000000 </v>
   <v>       0.50000000       0.00000000       0.00000000 </v>
   <v>       0.49122807       0.01754386       0.00000000 </v>
   <v>       0.48245614       0.03508772       0.00000000 </v>
   <v>       0.47368421       0.05263158       0.00000000 </v>
   <v>       0.46491228       0.07017544       0.00000000 </v>
   <v>       0.45614035       0.08771930       0.00000000 </v>
   <v>       0.44736842       0.10526316       0.00000000 </v>
   <v>       0.43859649       0.12280702       0.00000000 </v>
   <v>       0.42982456       0.14035088       0.00000000 </v>
   <v>       0.42105263       0.15789474       0.00000000 </v>
   <v>       0.41228070       0.17543860       0.00000000 </v>
   <v>       0.40350877       0.19298246       0.00000000 </v>
   <v>       0.39473684       0.21052632       0.00000000 </v>
   <v>       0.38596491       0.22807018       0.00000000 </v>
   <v>       0.37719298       0.24561404       0.00000000 </v>
   <v>       0.36842105       0.26315789       0.00000000 </v>
   <v>       0.35964912       0.28070175       0.00000000 </v>
   <v>       0.35087719       0.29824561       0.00000000 </v>
   <v>       0.34210526       0.31578947       0.00000000 </v>
   <v>       0.33333333       0.33333333       0.00000000 </v>
   <v>       0.33333333       0.33333333       0.00000000 </v>
   <v>       0.31578947       0.31578947       0.00000000 </v>
   <v>       0.29824561       0.29824561       0.00000000 </v>
   <v>       0.28070175       0.28070175       0.00000000 </v>
   <v>       0.26315789       0.26315789       0.00000000 </v>
   <v>       0.24561404       0.24561404       0.00000000 </v>
   <v>       0.22807018       0.22807018       0.00000000 </v>
   <v>       0.21052632       0.21052632       0.00000000 </v>
   <v>       0.19298246       0.19298246       0.00000000 </v>
   <v>       0.17543860       0.17543860       0.00000000 </v>
   <v>       0.15789474       0.15789474       0.00000000 </v>
   <v>       0.14035088       0.14035088       0.00000000 </v>
   <v>       0.12280702       0.12280702       0.00000000 </v>
   <v>       0.10526316       0.10526316       0.00000000 </v>
   <v>       0.08771930       0.08771930       0.00000000 </v>
   <v>       0.07017544       0.07017544       0.00000000 </v>
   <v>       0.05263158       0.05263158       0.00000000 </v>
   <v>       0.03508772       0.03508772       0.00000000 </v>
   <v>       0.01754386       0.01754386       0.00000000 </v>
   <v>       0.00000000       0.00000000       0.00000000 </v>
  </varray>
  <varray name="weights" >
   <v>       0.01666667 </v>
   <v>       0.01666667 </v>
   <v>       0.01666667 </v>
   <v>       0.01666667 </v>
   <v>       0.01666667 </v>
   <v>       0.01666667 </v>
   <v>       0.01666667 </v>
   <v>       0.01666667 </v>
   <v>       0.01666667 </v>
   <v>       0.01666667 </v>
   <v>       0.01666667 </v>
   <v>       0.01666667 </v>
   <v>       0.01666667 </v>
   <v>       0.01666667 </v>
   <v>       0.01666667 </v>
   <v>       0.01666667 </v>
   <v>       0.01666667 </v>
   <v>       0.01666667 </v>
   <v>       0.01666667 </v>
   <v>       0.01666667 </v>
   <v>       0.01666667 </v>
   <v>       0.01666667 </v>
   <v>       0.01666667 </v>
   <v>       0.01666667 </v>
   <v>       0.01666667 </v>
   <v>       0.01666667 </v>
   <v>       0.01666667 </v>
   <v>       0.01666667 </v>
   <v>       0.01666667 </v>
   <v>       0.01666667 </v>
   <v>       0.01666667 </v>
   <v>       0.01666667 </v>
   <v>       0.01666667 </v>
   <v>       0.01666667 </v>
   <v>       0.01666667 </v>
   <v>       0.01666667 </v>
   <v>       0.01666667 </v>
   <v>       0.01666667 </v>
   <v>       0.01666667 </v>
   <v>       0.01666667 </v>
   <v>       0.01666667 </v>
   <v>       0.01666667 </v>
   <v>       0.01666667 </v>
   <v>       0.01666667 </v>
   <v>       0.01666667 </v>
   <v>       0.01666667 </v>
   <v>       0.01666667 </v>
   <v>       0.01666667 </v>
   <v>       0.01666667 </v>
   <v>       0.01666667 </v>
   <v>       0.01666667 </v>
   <v>       0.01666667 </v>
   <v>       0.01666667 </v>
   <v>       0.01666667 </v>
   <v>       0.01666667 </v>
   <v>       0.01666667 </v>
   <v>       0.01666667 </v>
   <v>       0.01666667 </v>
   <v>       0.01666667 </v>
   <v>       0.01666667 </v>
  </varray>
 </kpoints>
 <parameters>
  <separator name="general" >
   <i type="string" name="SYSTEM">Simulation for cell shape cell volume r</i>
   <i type="logical" name="LCOMPAT"> F  </i>
  </separator>
  <separator name="electronic" >
   <i type="string" name="PREC">high</i>
   <i name="ENMAX">    500.00000000</i>
   <i name="ENAUG">    644.87300000</i>
   <i name="EDIFF">      0.00001000</i>
   <i type="int" name="IALGO">    38</i>
   <i type="int" name="IWAVPR">    10</i>
   <i type="int" name="NBANDS">   256</i>
   <i name="NELECT">    370.00000000</i>
   <i type="int" name="TURBO">     0</i>
   <i type="int" name="IRESTART">     0</i>
   <i type="int" name="NREBOOT">     0</i>
   <i type="int" name="NMIN">     0</i>
   <i name="EREF">      0.00000000</i>
   <separator name="electronic smearing" >
    <i type="int" name="ISMEAR">     0</i>
    <i name="SIGMA">      0.01000000</i>
    <i name="KSPACING">      0.50000000</i>
    <i type="logical" name="KGAMMA"> T  </i>
   </separator>
   <separator name="electronic projectors" >
    <i type="logical" name="LREAL"> T  </i>
    <v name="ROPT">     -0.00040000     -0.00040000     -0.00040000</v>
    <i type="int" name="LMAXPAW">  -100</i>
    <i type="int" name="LMAXMIX">     2</i>
    <i type="logical" name="NLSPLINE"> F  </i>
   </separator>
   <separator name="electronic startup" >
    <i type="int" name="ISTART">     1</i>
    <i type="int" name="ICHARG">    11</i>
    <i type="int" name="INIWAV">     1</i>
   </separator>
   <separator name="electronic spin" >
    <i type="int" name="ISPIN">     1</i>
    <i type="logical" name="LNONCOLLINEAR"> F  </i>
    <v name="MAGMOM">      1.00000000      1.00000000      1.00000000      1.00000000      1.00000000      1.00000000      1.00000000      1.00000000      1.00000000      1.00000000      1.00000000      1.00000000      1.00000000      1.00000000      1.00000000      1.00000000      1.00000000      1.00000000      1.00000000      1.00000000
      1.00000000      1.00000000      1.00000000      1.00000000      1.00000000      1.00000000      1.00000000      1.00000000      1.00000000      1.00000000      1.00000000      1.00000000      1.00000000      1.00000000      1.00000000      1.00000000      1.00000000      1.00000000      1.00000000      1.00000000
      1.00000000      1.00000000      1.00000000      1.00000000      1.00000000      1.00000000      1.00000000      1.00000000      1.00000000      1.00000000      1.00000000      1.00000000      1.00000000      1.00000000      1.00000000      1.00000000      1.00000000      1.00000000      1.00000000      1.00000000
      1.00000000      1.00000000      1.00000000      1.00000000      1.00000000      1.00000000      1.00000000      1.00000000      1.00000000      1.00000000      1.00000000      1.00000000      1.00000000      1.00000000      1.00000000      1.00000000      1.00000000      1.00000000      1.00000000      1.00000000
      1.00000000      1.00000000      1.00000000      1.00000000      1.00000000      1.00000000      1.00000000      1.00000000      1.00000000      1.00000000      1.00000000      1.00000000      1.00000000      1.00000000      1.00000000      1.00000000      1.00000000      1.00000000      1.00000000      1.00000000
      1.00000000      1.00000000      1.00000000      1.00000000      1.00000000      1.00000000      1.00000000      1.00000000      1.00000000      1.00000000      1.00000000      1.00000000      1.00000000      1.00000000      1.00000000      1.00000000      1.00000000      1.00000000      1.00000000      1.00000000
      1.00000000      1.00000000</v>
    <i name="NUPDOWN">     -1.00000000</i>
    <i type="logical" name="LSORBIT"> F  </i>
    <v name="SAXIS">      0.00000000      0.00000000      1.00000000</v>
    <i type="logical" name="LSPIRAL"> F  </i>
    <v name="QSPIRAL">      0.00000000      0.00000000      0.00000000</v>
    <i type="logical" name="LZEROZ"> F  </i>
   </separator>
   <separator name="electronic exchange-correlation" >
    <i type="logical" name="LASPH"> F  </i>
    <i type="logical" name="LMETAGGA"> F  </i>
   </separator>
   <separator name="electronic convergence" >
    <i type="int" name="NELM">   200</i>
    <i type="int" name="NELMDL">     0</i>
    <i type="int" name="NELMIN">     2</i>
    <i name="ENINI">    500.00000000</i>
    <separator name="electronic convergence detail" >
     <i type="logical" name="LDIAG"> T  </i>
     <i type="logical" name="LSUBROT"> F  </i>
     <i name="WEIMIN">      0.00000000</i>
     <i name="EBREAK">      0.00000001</i>
     <i name="DEPER">      0.30000000</i>
     <i type="int" name="NRMM">     4</i>
     <i name="TIME">      0.40000000</i>
    </separator>
   </separator>
   <separator name="electronic mixer" >
    <i name="AMIX">      0.40000000</i>
    <i name="BMIX">      1.00000000</i>
    <i name="AMIN">      0.10000000</i>
    <i name="AMIX_MAG">      1.60000000</i>
    <i name="BMIX_MAG">      1.00000000</i>
    <separator name="electronic mixer details" >
     <i type="int" name="IMIX">     4</i>
     <i type="logical" name="MIXFIRST"> F  </i>
     <i type="int" name="MAXMIX">   -45</i>
     <i name="WC">    100.00000000</i>
     <i type="int" name="INIMIX">     1</i>
     <i type="int" name="MIXPRE">     1</i>
     <i type="int" name="MREMOVE">     5</i>
    </separator>
   </separator>
   <separator name="electronic dipolcorrection" >
    <i type="logical" name="LDIPOL"> F  </i>
    <i type="logical" name="LMONO"> F  </i>
    <i type="int" name="IDIPOL">     0</i>
    <i name="EPSILON">      1.00000000</i>
    <v name="DIPOL">   -100.00000000   -100.00000000   -100.00000000</v>
    <i name="EFIELD">      0.00000000</i>
   </separator>
  </separator>
  <separator name="grids" >
   <i type="int" name="NGX">   240</i>
   <i type="int" name="NGY">   240</i>
   <i type="int" name="NGZ">   150</i>
   <i type="int" name="NGXF">   360</i>
   <i type="int" name="NGYF">   360</i>
   <i type="int" name="NGZF">   224</i>
   <i type="logical" name="ADDGRID"> F  </i>
  </separator>
  <separator name="ionic" >
   <i type="int" name="NSW">     0</i>
   <i type="int" name="IBRION">    -1</i>
   <i type="int" name="MDALGO">     0</i>
   <i type="int" name="ISIF">     2</i>
   <i name="PSTRESS">      0.00000000</i>
   <i name="EDIFFG">     -0.01000000</i>
   <i type="int" name="NFREE">     0</i>
   <i name="POTIM">      0.30000000</i>
   <i name="SMASS">     -3.00000000</i>
   <i name="SCALEE">      1.00000000</i>
  </separator>
  <separator name="ionic md" >
   <i name="TEBEG">      0.00010000</i>
   <i name="TEEND">      0.00010000</i>
   <i type="int" name="NBLOCK">     1</i>
   <i type="int" name="KBLOCK">     1</i>
   <i type="int" name="NPACO">   256</i>
   <i name="APACO">     16.00000000</i>
  </separator>
  <separator name="symmetry" >
   <i type="int" name="ISYM">     2</i>
   <i name="SYMPREC">      0.00001000</i>
  </separator>
  <separator name="dos" >
   <i type="int" name="LORBIT">     0</i>
   <v name="RWIGS">     -1.00000000     -1.00000000     -1.00000000</v>
   <i type="int" name="NEDOS">   301</i>
   <i name="EMIN">     10.00000000</i>
   <i name="EMAX">    -10.00000000</i>
   <i name="EFERMI">      0.00000000</i>
  </separator>
  <separator name="writing" >
   <i type="int" name="NWRITE">     0</i>
   <i type="logical" name="LWAVE"> F  </i>
   <i type="logical" name="LDOWNSAMPLE"> F  </i>
   <i type="logical" name="LCHARG"> F  </i>
   <i type="logical" name="LPARD"> F  </i>
   <i type="logical" name="LVTOT"> F  </i>
   <i type="logical" name="LVHAR"> F  </i>
   <i type="logical" name="LELF"> F  </i>
   <i type="logical" name="LOPTICS"> F  </i>
   <v name="STM">      0.00000000      0.00000000      0.00000000      0.00000000      0.00000000      0.00000000      0.00000000</v>
  </separator>
  <separator name="performance" >
   <i type="int" name="NPAR">    16</i>
   <i type="int" name="NSIM">     4</i>
   <i type="int" name="NBLK">    -1</i>
   <i type="logical" name="LPLANE"> T  </i>
   <i type="logical" name="LSCALAPACK"> T  </i>
   <i type="logical" name="LSCAAWARE"> F  </i>
   <i type="logical" name="LSCALU"> F  </i>
   <i type="logical" name="LASYNC"> F  </i>
   <i type="logical" name="LORBITALREAL"> F  </i>
  </separator>
  <separator name="miscellaneous" >
   <i type="int" name="IDIOT">     3</i>
   <i type="int" name="ISPECIAL">     0</i>
   <i type="logical" name="LMUSIC"> F  </i>
   <v name="POMASS">     12.01100000     14.00100000      1.00000000</v>
   <v name="DARWINR">      0.00000000      0.00000000      0.00000000</v>
   <v name="DARWINV">      1.00000000      1.00000000      1.00000000</v>
   <i type="logical" name="LCORR"> T  </i>
  </separator>
  <i type="logical" name="GGA_COMPAT"> T  </i>
  <i type="logical" name="LBERRY"> F  </i>
  <i type="int" name="ICORELEVEL">     0</i>
  <i type="logical" name="LDAU"> F  </i>
  <i type="int" name="I_CONSTRAINED_M">     0</i>
  <separator name="electronic exchange-correlation" >
   <i type="string" name="GGA">PE</i>
   <i type="int" name="VOSKOWN">     0</i>
   <i type="logical" name="LHFCALC"> F  </i>
   <i type="string" name="PRECFOCK"></i>
   <i type="logical" name="LSYMGRAD"> F  </i>
   <i type="logical" name="LHFONE"> F  </i>
   <i type="logical" name="LRHFCALC"> F  </i>
   <i type="logical" name="LTHOMAS"> F  </i>
   <i type="logical" name="LMODELHF"> F  </i>
   <i name="ENCUT4O">     -1.00000000</i>
   <i type="int" name="EXXOEP">     0</i>
   <i type="int" name="FOURORBIT">     0</i>
   <i name="AEXX">      0.00000000</i>
   <i name="HFALPHA">      0.00000000</i>
   <i name="MCALPHA">      0.00000000</i>
   <i name="ALDAX">      1.00000000</i>
   <i name="AGGAX">      1.00000000</i>
   <i name="ALDAC">      1.00000000</i>
   <i name="AGGAC">      1.00000000</i>
   <i type="int" name="NKREDX">     1</i>
   <i type="int" name="NKREDY">     1</i>
   <i type="int" name="NKREDZ">     1</i>
   <i type="logical" name="SHIFTRED"> F  </i>
   <i type="logical" name="ODDONLY"> F  </i>
   <i type="logical" name="EVENONLY"> F  </i>
   <i type="int" name="LMAXFOCK">     0</i>
   <i type="int" name="NMAXFOCKAE">     0</i>
   <i type="logical" name="LFOCKAEDFT"> F  </i>
   <i name="HFSCREEN">      0.00000000</i>
   <i name="HFSCREENC">      0.00000000</i>
   <i type="int" name="NBANDSGWLOW">     0</i>
  </separator>
  <separator name="vdW DFT" >
   <i type="logical" name="LUSE_VDW"> F  </i>
   <i name="Zab_VDW">     -0.84910000</i>
   <i name="PARAM1">      0.12340000</i>
   <i name="PARAM2">      1.00000000</i>
   <i name="PARAM3">      0.00000000</i>
  </separator>
  <separator name="model GW" >
   <i type="int" name="MODEL_GW">     0</i>
   <i name="MODEL_EPS0">     86.87787729</i>
   <i name="MODEL_ALPHA">      1.00000000</i>
  </separator>
  <separator name="linear response parameters" >
   <i type="logical" name="LEPSILON"> F  </i>
   <i type="logical" name="LRPA"> F  </i>
   <i type="logical" name="LNABLA"> F  </i>
   <i type="logical" name="LVEL"> F  </i>
   <i type="int" name="KINTER">     0</i>
   <i name="CSHIFT">      0.10000000</i>
   <i name="OMEGAMAX">     -1.00000000</i>
   <i name="DEG_THRESHOLD">      0.00200000</i>
   <i name="RTIME">     -0.10000000</i>
   <i name="WPLASMAI">      0.00000000</i>
   <v name="DFIELD">      0.00000000      0.00000000      0.00000000</v>
   <v name="WPLASMA">      0.00000000      0.00000000      0.00000000      0.00000000      0.00000000      0.00000000      0.00000000      0.00000000      0.00000000</v>
  </separator>
  <separator name="orbital magnetization" >
   <i type="logical" name="NUCIND"> F  </i>
   <v name="MAGPOS">      0.00000000      0.00000000      0.00000000</v>
   <i type="logical" name="LNICSALL"> T  </i>
   <i type="logical" name="ORBITALMAG"> F  </i>
   <i type="logical" name="LMAGBLOCH"> F  </i>
   <i type="logical" name="LCHIMAG"> F  </i>
   <i type="logical" name="LGAUGE"> T  </i>
   <i type="int" name="MAGATOM">     0</i>
   <v name="MAGDIPOL">      0.00000000      0.00000000      0.00000000</v>
   <v name="AVECCONST">      0.00000000      0.00000000      0.00000000</v>
  </separator>
  <separator name="response functions" >
   <i type="logical" name="LADDER"> F  </i>
   <i type="logical" name="LRPAFORCE"> F  </i>
   <i type="logical" name="LFXC"> F  </i>
   <i type="logical" name="LHARTREE"> T  </i>
   <i type="int" name="IBSE">     0</i>
   <v type="int" name="KPOINT">    -1     0     0     0</v>
   <i type="logical" name="LTCTE"> F  </i>
   <i type="logical" name="LTETE"> F  </i>
   <i type="logical" name="LTRIPLET"> F  </i>
   <i type="logical" name="LFXCEPS"> F  </i>
   <i type="logical" name="LFXHEG"> F  </i>
   <i type="int" name="NATURALO">     2</i>
   <i type="logical" name="L2ORDER"> F  </i>
   <i type="logical" name="LMP2LT"> F  </i>
   <i type="logical" name="LUSEW"> F  </i>
   <i name="ENCUTGW">     -2.00000000</i>
   <i name="ENCUTGWSOFT">     -2.00000000</i>
   <i name="ENCUTLF">     -1.00000000</i>
   <i type="int" name="LMAXMP2">    -1</i>
   <i name="SCISSOR">      0.00000000</i>
   <i type="int" name="NOMEGA">     0</i>
   <i type="int" name="NOMEGAR">     0</i>
   <i type="int" name="NBANDSGW">    -1</i>
   <i type="int" name="NBANDSO">    -1</i>
   <i type="int" name="NBANDSV">    -1</i>
   <i type="int" name="NELM">   200</i>
   <i type="int" name="NELMHF">     1</i>
   <i type="int" name="DIM">     3</i>
   <i type="int" name="ANTIRES">     0</i>
   <i name="OMEGAMAX">    -30.00000000</i>
   <i name="OMEGAMIN">    -30.00000000</i>
   <i name="OMEGATL">   -200.00000000</i>
   <i type="int" name="OMEGAGRID">   140</i>
   <i name="CSHIFT">     -0.10000000</i>
   <i type="logical" name="SELFENERGY"> F  </i>
   <i type="logical" name="LSPECTRAL"> F  </i>
   <i type="logical" name="LSPECTRALGW"> F  </i>
   <i type="logical" name="LSINGLES"> F  </i>
   <i type="logical" name="LFERMIGW"> F  </i>
   <i type="logical" name="ODDONLYGW"> F  </i>
   <i type="logical" name="EVENONLYGW"> F  </i>
   <i type="int" name="NKREDLFX">     1</i>
   <i type="int" name="NKREDLFY">     1</i>
   <i type="int" name="NKREDLFZ">     1</i>
   <i type="int" name="MAXMEM">  2800</i>
   <i type="int" name="TELESCOPE">     0</i>
   <i type="int" name="TAUPAR">     1</i>
   <i type="int" name="OMEGAPAR">    -1</i>
   <i name="LAMBDA">      1.00000000</i>
  </separator>
  <separator name="External order field" >
   <i name="OFIELD_KAPPA">      0.00000000</i>
   <v name="OFIELD_K">      0.00000000      0.00000000      0.00000000</v>
   <i name="OFIELD_Q6_NEAR">      0.00000000</i>
   <i name="OFIELD_Q6_FAR">      0.00000000</i>
   <i name="OFIELD_A">      0.00000000</i>
  </separator>
  <separator name="solvation model" >
   <i type="logical" name="LSOL"> F  </i>
  </separator>
 </parameters>
 <atominfo>
  <atoms>     122 </atoms>
  <types>       3 </types>
  <array name="atoms" >
   <dimension dim="1">ion</dimension>
   <field type="string">element</field>
   <field type="int">atomtype</field>
   <set>
    <rc><c>C </c><c>   1</c></rc>
    <rc><c>C </c><c>   1</c></rc>
    <rc><c>C </c><c>   1</c></rc>
    <rc><c>C </c><c>   1</c></rc>
    <rc><c>C </c><c>   1</c></rc>
    <rc><c>C </c><c>   1</c></rc>
    <rc><c>C </c><c>   1</c></rc>
    <rc><c>C </c><c>   1</c></rc>
    <rc><c>C </c><c>   1</c></rc>
    <rc><c>C </c><c>   1</c></rc>
    <rc><c>C </c><c>   1</c></rc>
    <rc><c>C </c><c>   1</c></rc>
    <rc><c>C </c><c>   1</c></rc>
    <rc><c>C </c><c>   1</c></rc>
    <rc><c>C </c><c>   1</c></rc>
    <rc><c>C </c><c>   1</c></rc>
    <rc><c>C </c><c>   1</c></rc>
    <rc><c>C </c><c>   1</c></rc>
    <rc><c>C </c><c>   1</c></rc>
    <rc><c>C </c><c>   1</c></rc>
    <rc><c>C </c><c>   1</c></rc>
    <rc><c>C </c><c>   1</c></rc>
    <rc><c>C </c><c>   1</c></rc>
    <rc><c>C </c><c>   1</c></rc>
    <rc><c>C </c><c>   1</c></rc>
    <rc><c>C </c><c>   1</c></rc>
    <rc><c>C </c><c>   1</c></rc>
    <rc><c>C </c><c>   1</c></rc>
    <rc><c>C </c><c>   1</c></rc>
    <rc><c>C </c><c>   1</c></rc>
    <rc><c>C </c><c>   1</c></rc>
    <rc><c>C </c><c>   1</c></rc>
    <rc><c>C </c><c>   1</c></rc>
    <rc><c>C </c><c>   1</c></rc>
    <rc><c>C </c><c>   1</c></rc>
    <rc><c>C </c><c>   1</c></rc>
    <rc><c>C </c><c>   1</c></rc>
    <rc><c>C </c><c>   1</c></rc>
    <rc><c>C </c><c>   1</c></rc>
    <rc><c>C </c><c>   1</c></rc>
    <rc><c>C </c><c>   1</c></rc>
    <rc><c>C </c><c>   1</c></rc>
    <rc><c>C </c><c>   1</c></rc>
    <rc><c>C </c><c>   1</c></rc>
    <rc><c>C </c><c>   1</c></rc>
    <rc><c>C </c><c>   1</c></rc>
    <rc><c>C </c><c>   1</c></rc>
    <rc><c>C </c><c>   1</c></rc>
    <rc><c>C </c><c>   1</c></rc>
    <rc><c>C </c><c>   1</c></rc>
    <rc><c>C </c><c>   1</c></rc>
    <rc><c>C </c><c>   1</c></rc>
    <rc><c>C </c><c>   1</c></rc>
    <rc><c>C </c><c>   1</c></rc>
    <rc><c>C </c><c>   1</c></rc>
    <rc><c>C </c><c>   1</c></rc>
    <rc><c>C </c><c>   1</c></rc>
    <rc><c>C </c><c>   1</c></rc>
    <rc><c>C </c><c>   1</c></rc>
    <rc><c>C </c><c>   1</c></rc>
    <rc><c>C </c><c>   1</c></rc>
    <rc><c>C </c><c>   1</c></rc>
    <rc><c>C </c><c>   1</c></rc>
    <rc><c>C </c><c>   1</c></rc>
    <rc><c>C </c><c>   1</c></rc>
    <rc><c>C </c><c>   1</c></rc>
    <rc><c>C </c><c>   1</c></rc>
    <rc><c>C </c><c>   1</c></rc>
    <rc><c>C </c><c>   1</c></rc>
    <rc><c>C </c><c>   1</c></rc>
    <rc><c>C </c><c>   1</c></rc>
    <rc><c>C </c><c>   1</c></rc>
    <rc><c>N </c><c>   2</c></rc>
    <rc><c>N </c><c>   2</c></rc>
    <rc><c>N </c><c>   2</c></rc>
    <rc><c>N </c><c>   2</c></rc>
    <rc><c>N </c><c>   2</c></rc>
    <rc><c>N </c><c>   2</c></rc>
    <rc><c>N </c><c>   2</c></rc>
    <rc><c>N </c><c>   2</c></rc>
    <rc><c>H </c><c>   3</c></rc>
    <rc><c>H </c><c>   3</c></rc>
    <rc><c>H </c><c>   3</c></rc>
    <rc><c>H </c><c>   3</c></rc>
    <rc><c>H </c><c>   3</c></rc>
    <rc><c>H </c><c>   3</c></rc>
    <rc><c>H </c><c>   3</c></rc>
    <rc><c>H </c><c>   3</c></rc>
    <rc><c>H </c><c>   3</c></rc>
    <rc><c>H </c><c>   3</c></rc>
    <rc><c>H </c><c>   3</c></rc>
    <rc><c>H </c><c>   3</c></rc>
    <rc><c>H </c><c>   3</c></rc>
    <rc><c>H </c><c>   3</c></rc>
    <rc><c>H </c><c>   3</c></rc>
    <rc><c>H </c><c>   3</c></rc>
    <rc><c>H </c><c>   3</c></rc>
    <rc><c>H </c><c>   3</c></rc>
    <rc><c>H </c><c>   3</c></rc>
    <rc><c>H </c><c>   3</c></rc>
    <rc><c>H </c><c>   3</c></rc>
    <rc><c>H </c><c>   3</c></rc>
    <rc><c>H </c><c>   3</c></rc>
    <rc><c>H </c><c>   3</c></rc>
    <rc><c>H </c><c>   3</c></rc>
    <rc><c>H </c><c>   3</c></rc>
    <rc><c>H </c><c>   3</c></rc>
    <rc><c>H </c><c>   3</c></rc>
    <rc><c>H </c><c>   3</c></rc>
    <rc><c>H </c><c>   3</c></rc>
    <rc><c>H </c><c>   3</c></rc>
    <rc><c>H </c><c>   3</c></rc>
    <rc><c>H </c><c>   3</c></rc>
    <rc><c>H </c><c>   3</c></rc>
    <rc><c>H </c><c>   3</c></rc>
    <rc><c>H </c><c>   3</c></rc>
    <rc><c>H </c><c>   3</c></rc>
    <rc><c>H </c><c>   3</c></rc>
    <rc><c>H </c><c>   3</c></rc>
    <rc><c>H </c><c>   3</c></rc>
    <rc><c>H </c><c>   3</c></rc>
    <rc><c>H </c><c>   3</c></rc>
   </set>
  </array>
  <array name="atomtypes" >
   <dimension dim="1">type</dimension>
   <field type="int">atomspertype</field>
   <field type="string">element</field>
   <field>mass</field>
   <field>valence</field>
   <field type="string">pseudopotential</field>
   <set>
    <rc><c>  72</c><c>C </c><c>     12.01100000</c><c>      4.00000000</c><c>  PAW_PBE C 08Apr2002                   </c></rc>
    <rc><c>   8</c><c>N </c><c>     14.00100000</c><c>      5.00000000</c><c>  PAW_PBE N 08Apr2002                   </c></rc>
    <rc><c>  42</c><c>H </c><c>      1.00000000</c><c>      1.00000000</c><c>  PAW_PBE H 15Jun2001                   </c></rc>
   </set>
  </array>
 </atominfo>
 <structure name="initialpos" >
  <crystal>
   <varray name="basis" >
    <v>      31.93629196       0.00883397       0.00000000 </v>
    <v>     -15.96039400      27.65247220       0.00000000 </v>
    <v>       0.00000000       0.00000000      20.00000000 </v>
   </varray>
   <i name="volume">  17665.16838158 </i>
   <varray name="rec_basis" >
    <v>       0.03130734       0.01806990       0.00000000 </v>
    <v>      -0.00001000       0.03615736       0.00000000 </v>
    <v>       0.00000000       0.00000000       0.05000000 </v>
   </varray>
  </crystal>
  <varray name="positions" >
   <v>       0.33343191       0.60919300       0.52814656 </v>
   <v>       0.35877610       0.58427676       0.52500252 </v>
   <v>       0.39737912       0.59817515       0.47999382 </v>
   <v>       0.41016160       0.63855508       0.43890357 </v>
   <v>       0.38525677       0.66391613       0.44209424 </v>
   <v>       0.47296797       0.52003873       0.47634379 </v>
   <v>       0.42346848       0.57101691       0.47587500 </v>
   <v>       0.43454052       0.55762472       0.41522735 </v>
   <v>       0.45909297       0.53120922       0.41385627 </v>
   <v>       0.46941114       0.51499924       0.35248092 </v>
   <v>       0.43849516       0.55717898       0.53471671 </v>
   <v>       0.34483224       0.72523575       0.48618564 </v>
   <v>       0.26885911       0.64771106       0.48678430 </v>
   <v>       0.34630521       0.64926800       0.48651578 </v>
   <v>       0.32874690       0.74962775       0.44417561 </v>
   <v>       0.39566718       0.82745082       0.47985367 </v>
   <v>       0.41116487       0.80267440       0.52222635 </v>
   <v>       0.38639333       0.75242693       0.52527961 </v>
   <v>       0.24163667       0.66259371       0.52492793 </v>
   <v>       0.16662384       0.59599838       0.48097616 </v>
   <v>       0.19421393       0.58123198       0.44340805 </v>
   <v>       0.24445202       0.60643947       0.44619137 </v>
   <v>       0.35394016       0.79987042       0.44113665 </v>
   <v>       0.19140722       0.63699555       0.52209501 </v>
   <v>       0.42248586       0.88068835       0.47596972 </v>
   <v>       0.11341428       0.56953049       0.47704788 </v>
   <v>       0.62861578       0.28960979       0.48657813 </v>
   <v>       0.70455813       0.36693066       0.48619640 </v>
   <v>       0.62718204       0.36566087       0.48594500 </v>
   <v>       0.58577454       0.34861129       0.44559763 </v>
   <v>       0.56059898       0.37367862       0.44250417 </v>
   <v>       0.57554805       0.41632439       0.47944858 </v>
   <v>       0.61679477       0.43284534       0.52012211 </v>
   <v>       0.64235060       0.40815044       0.52332105 </v>
   <v>       0.64437193       0.26522362       0.44403898 </v>
   <v>       0.61919914       0.21497045       0.44106725 </v>
   <v>       0.57784560       0.18741462       0.48047497 </v>
   <v>       0.56282902       0.21220612       0.52362670 </v>
   <v>       0.58758485       0.26245152       0.52662377 </v>
   <v>       0.72899376       0.40618102       0.44225502 </v>
   <v>       0.77923278       0.43107353       0.43931704 </v>
   <v>       0.80670654       0.41797755       0.48016740 </v>
   <v>       0.78187087       0.37894780       0.52449246 </v>
   <v>       0.73162518       0.35362273       0.52740524 </v>
   <v>       0.55080505       0.13417462       0.47645006 </v>
   <v>       0.49971001       0.03370180       0.47698156 </v>
   <v>       0.51305837       0.05872015       0.41445014 </v>
   <v>       0.53946013       0.10967250       0.41582598 </v>
   <v>       0.47322019       0.98115384       0.47689464 </v>
   <v>       0.43311489       0.90531698       0.41548847 </v>
   <v>       0.45928605       0.95627384       0.41428715 </v>
   <v>       0.47264704       0.98290756       0.35282172 </v>
   <v>       0.49896101       0.03222016       0.35289887 </v>
   <v>       0.85994299       0.44418337       0.47645077 </v>
   <v>       0.96040025       0.49371551       0.47748832 </v>
   <v>       0.93553115       0.48072077       0.41484007 </v>
   <v>       0.88459138       0.45609134       0.41594103 </v>
   <v>       0.01294815       0.51981513       0.47761328 </v>
   <v>       0.08888345       0.55425466       0.41662478 </v>
   <v>       0.03794765       0.52946081       0.41522392 </v>
   <v>       0.01144816       0.51493641       0.35369076 </v>
   <v>       0.96214783       0.49189128       0.35346755 </v>
   <v>       0.54892386       0.44294195       0.47553006 </v>
   <v>       0.49903316       0.49354985       0.47630110 </v>
   <v>       0.50796668       0.47757042       0.41394173 </v>
   <v>       0.53291710       0.45154798       0.41524540 </v>
   <v>       0.49256185       0.48881388       0.35256297 </v>
   <v>       0.53493410       0.10533549       0.53528514 </v>
   <v>       0.43880387       0.90940476       0.53487951 </v>
   <v>       0.88862840       0.45847060       0.53546093 </v>
   <v>       0.08459555       0.55838064       0.53571704 </v>
   <v>       0.53832015       0.46111126       0.53417405 </v>
   <v>       0.46242717       0.53329239       0.53550620 </v>
   <v>       0.31994709       0.67411556       0.48895274 </v>
   <v>       0.65339153       0.34077012       0.48866930 </v>
   <v>       0.51093233       0.05752342       0.53617790 </v>
   <v>       0.46264003       0.95721060       0.53597558 </v>
   <v>       0.93642710       0.48232189       0.53657518 </v>
   <v>       0.03679198       0.53444086       0.53664913 </v>
   <v>       0.51431301       0.48492274       0.53520646 </v>
   <v>       0.34806086       0.55299872       0.55733053 </v>
   <v>       0.44040785       0.65042365       0.40425000 </v>
   <v>       0.45806077       0.52377752       0.30552850 </v>
   <v>       0.42321381       0.56637494       0.36819815 </v>
   <v>       0.43084627       0.56743231       0.58355376 </v>
   <v>       0.29634924       0.72884587       0.41399758 </v>
   <v>       0.39911584       0.73373953       0.55792134 </v>
   <v>       0.44356085       0.82317420       0.55258754 </v>
   <v>       0.30322081       0.59768269       0.56270692 </v>
   <v>       0.26028923       0.69456936       0.55653546 </v>
   <v>       0.17585106       0.54913836       0.41185359 </v>
   <v>       0.26521025       0.59435522       0.41682621 </v>
   <v>       0.39569548       0.69522836       0.41001490 </v>
   <v>       0.34083250       0.81826377       0.40852300 </v>
   <v>       0.17092572       0.64939892       0.55157525 </v>
   <v>       0.42232443       0.88537100       0.36833371 </v>
   <v>       0.10888130       0.56239709       0.36957808 </v>
   <v>       0.63198888       0.19659642       0.40786520 </v>
   <v>       0.67641540       0.28605081       0.41322857 </v>
   <v>       0.57515482       0.28115046       0.55974195 </v>
   <v>       0.53074912       0.19168876       0.55456041 </v>
   <v>       0.57352991       0.31554126       0.41672736 </v>
   <v>       0.52835352       0.35971933       0.41124856 </v>
   <v>       0.70822288       0.41690188       0.41043262 </v>
   <v>       0.79768589       0.46157332       0.40506830 </v>
   <v>       0.80231930       0.36788207       0.55647630 </v>
   <v>       0.71284998       0.32313112       0.56151295 </v>
   <v>       0.67447434       0.42172295       0.55467841 </v>
   <v>       0.62940500       0.46599917       0.54903085 </v>
   <v>       0.54985606       0.12971417       0.36872609 </v>
   <v>       0.46164227       0.96285981       0.30578189 </v>
   <v>       0.50947927       0.05236351       0.30592530 </v>
   <v>       0.86468899       0.44541986       0.36875107 </v>
   <v>       0.03159248       0.52307471       0.30682018 </v>
   <v>       0.94209889       0.48126983       0.30641914 </v>
   <v>       0.54062388       0.43929105       0.36822159 </v>
   <v>       0.50007917       0.47627964       0.30567296 </v>
   <v>       0.54358431       0.12326750       0.58412903 </v>
   <v>       0.43068328       0.89137664       0.58363973 </v>
   <v>       0.87058464       0.45028381       0.58421860 </v>
   <v>       0.10253597       0.56933344       0.58446086 </v>
   <v>       0.54979368       0.45460348       0.58283225 </v>
  </varray>
 </structure>
 <calculation>
  <scstep>
   <time name="dav">  772.47  780.78</time>
   <time name="total">  772.76  781.09</time>
   <energy>
    <i name="alphaZ">     36.72429142 </i>
    <i name="ewald">  47458.22189358 </i>
    <i name="hartreedc"> -58207.05121895 </i>
    <i name="XCdc">   1263.89604192 </i>
    <i name="pawpsdc">  34350.89247734 </i>
    <i name="pawaedc"> -34412.50230518 </i>
    <i name="eentropy">     -0.00000000 </i>
    <i name="bandstr">  -4593.01331793 </i>
    <i name="atom">  13235.39521098 </i>
    <i name="e_fr_energy">   -867.43692682 </i>
    <i name="e_wo_entrp">   -867.43692682 </i>
    <i name="e_0_energy">   -867.43692682 </i>
   </energy>
  </scstep>
  <scstep>
   <time name="dav">  905.97  915.52</time>
   <time name="total">  905.97  915.53</time>
   <energy>
    <i name="e_fr_energy">   -867.80346860 </i>
    <i name="e_wo_entrp">   -867.80346860 </i>
    <i name="e_0_energy">   -867.80346860 </i>
   </energy>
  </scstep>
  <scstep>
   <time name="dav"> 1016.56 1027.29</time>
   <time name="total"> 1016.56 1027.29</time>
   <energy>
    <i name="e_fr_energy">   -867.81367034 </i>
    <i name="e_wo_entrp">   -867.81367034 </i>
    <i name="e_0_energy">   -867.81367034 </i>
   </energy>
  </scstep>
  <scstep>
   <time name="dav">  881.49  891.00</time>
   <time name="total">  881.49  891.00</time>
   <energy>
    <i name="e_fr_energy">   -867.81381166 </i>
    <i name="e_wo_entrp">   -867.81381166 </i>
    <i name="e_0_energy">   -867.81381166 </i>
   </energy>
  </scstep>
  <scstep>
   <time name="dav">  826.25  834.99</time>
   <time name="total">  826.25  834.99</time>
   <energy>
    <i name="alphaZ">     36.72429142 </i>
    <i name="ewald">  47458.22189358 </i>
    <i name="hartreedc"> -58207.05121895 </i>
    <i name="XCdc">   1263.89604192 </i>
    <i name="pawpsdc">  34350.89247734 </i>
    <i name="pawaedc"> -34412.50230518 </i>
    <i name="eentropy">     -0.00000000 </i>
    <i name="bandstr">  -4593.39021001 </i>
    <i name="atom">  13235.39521098 </i>
    <i name="e_fr_energy">   -867.81381890 </i>
    <i name="e_wo_entrp">   -867.81381890 </i>
    <i name="e_0_energy">   -867.81381890 </i>
   </energy>
  </scstep>
  <structure>
   <crystal>
    <varray name="basis" >
     <v>      31.93629196       0.00883397       0.00000000 </v>
     <v>     -15.96039400      27.65247220       0.00000000 </v>
     <v>       0.00000000       0.00000000      20.00000000 </v>
    </varray>
    <i name="volume">  17665.16838158 </i>
    <varray name="rec_basis" >
     <v>       0.03130734       0.01806990       0.00000000 </v>
     <v>      -0.00001000       0.03615736       0.00000000 </v>
     <v>       0.00000000       0.00000000       0.05000000 </v>
    </varray>
   </crystal>
   <varray name="positions" >
    <v>       0.33343191       0.60919300       0.52814656 </v>
    <v>       0.35877610       0.58427676       0.52500252 </v>
    <v>       0.39737912       0.59817515       0.47999382 </v>
    <v>       0.41016160       0.63855508       0.43890357 </v>
    <v>       0.38525677       0.66391613       0.44209424 </v>
    <v>       0.47296797       0.52003873       0.47634379 </v>
    <v>       0.42346848       0.57101691       0.47587500 </v>
    <v>       0.43454052       0.55762472       0.41522735 </v>
    <v>       0.45909297       0.53120922       0.41385627 </v>
    <v>       0.46941114       0.51499924       0.35248092 </v>
    <v>       0.43849516       0.55717898       0.53471671 </v>
    <v>       0.34483224       0.72523575       0.48618564 </v>
    <v>       0.26885911       0.64771106       0.48678430 </v>
    <v>       0.34630521       0.64926800       0.48651578 </v>
    <v>       0.32874690       0.74962775       0.44417561 </v>
    <v>       0.39566718       0.82745082       0.47985367 </v>
    <v>       0.41116487       0.80267440       0.52222635 </v>
    <v>       0.38639333       0.75242693       0.52527961 </v>
    <v>       0.24163667       0.66259371       0.52492793 </v>
    <v>       0.16662384       0.59599838       0.48097616 </v>
    <v>       0.19421393       0.58123198       0.44340805 </v>
    <v>       0.24445202       0.60643947       0.44619137 </v>
    <v>       0.35394016       0.79987042       0.44113665 </v>
    <v>       0.19140722       0.63699555       0.52209501 </v>
    <v>       0.42248586       0.88068835       0.47596972 </v>
    <v>       0.11341428       0.56953049       0.47704788 </v>
    <v>       0.62861578       0.28960979       0.48657813 </v>
    <v>       0.70455813       0.36693066       0.48619640 </v>
    <v>       0.62718204       0.36566087       0.48594500 </v>
    <v>       0.58577454       0.34861129       0.44559763 </v>
    <v>       0.56059898       0.37367862       0.44250417 </v>
    <v>       0.57554805       0.41632439       0.47944858 </v>
    <v>       0.61679477       0.43284534       0.52012211 </v>
    <v>       0.64235060       0.40815044       0.52332105 </v>
    <v>       0.64437193       0.26522362       0.44403898 </v>
    <v>       0.61919914       0.21497045       0.44106725 </v>
    <v>       0.57784560       0.18741462       0.48047497 </v>
    <v>       0.56282902       0.21220612       0.52362670 </v>
    <v>       0.58758485       0.26245152       0.52662377 </v>
    <v>       0.72899376       0.40618102       0.44225502 </v>
    <v>       0.77923278       0.43107353       0.43931704 </v>
    <v>       0.80670654       0.41797755       0.48016740 </v>
    <v>       0.78187087       0.37894780       0.52449246 </v>
    <v>       0.73162518       0.35362273       0.52740524 </v>
    <v>       0.55080505       0.13417462       0.47645006 </v>
    <v>       0.49971001       0.03370180       0.47698156 </v>
    <v>       0.51305837       0.05872015       0.41445014 </v>
    <v>       0.53946013       0.10967250       0.41582598 </v>
    <v>       0.47322019       0.98115384       0.47689464 </v>
    <v>       0.43311489       0.90531698       0.41548847 </v>
    <v>       0.45928605       0.95627384       0.41428715 </v>
    <v>       0.47264704       0.98290756       0.35282172 </v>
    <v>       0.49896101       0.03222016       0.35289887 </v>
    <v>       0.85994299       0.44418337       0.47645077 </v>
    <v>       0.96040025       0.49371551       0.47748832 </v>
    <v>       0.93553115       0.48072077       0.41484007 </v>
    <v>       0.88459138       0.45609134       0.41594103 </v>
    <v>       0.01294815       0.51981513       0.47761328 </v>
    <v>       0.08888345       0.55425466       0.41662478 </v>
    <v>       0.03794765       0.52946081       0.41522392 </v>
    <v>       0.01144816       0.51493641       0.35369076 </v>
    <v>       0.96214783       0.49189128       0.35346755 </v>
    <v>       0.54892386       0.44294195       0.47553006 </v>
    <v>       0.49903316       0.49354985       0.47630110 </v>
    <v>       0.50796668       0.47757042       0.41394173 </v>
    <v>       0.53291710       0.45154798       0.41524540 </v>
    <v>       0.49256185       0.48881388       0.35256297 </v>
    <v>       0.53493410       0.10533549       0.53528514 </v>
    <v>       0.43880387       0.90940476       0.53487951 </v>
    <v>       0.88862840       0.45847060       0.53546093 </v>
    <v>       0.08459555       0.55838064       0.53571704 </v>
    <v>       0.53832015       0.46111126       0.53417405 </v>
    <v>       0.46242717       0.53329239       0.53550620 </v>
    <v>       0.31994709       0.67411556       0.48895274 </v>
    <v>       0.65339153       0.34077012       0.48866930 </v>
    <v>       0.51093233       0.05752342       0.53617790 </v>
    <v>       0.46264003       0.95721060       0.53597558 </v>
    <v>       0.93642710       0.48232189       0.53657518 </v>
    <v>       0.03679198       0.53444086       0.53664913 </v>
    <v>       0.51431301       0.48492274       0.53520646 </v>
    <v>       0.34806086       0.55299872       0.55733053 </v>
    <v>       0.44040785       0.65042365       0.40425000 </v>
    <v>       0.45806077       0.52377752       0.30552850 </v>
    <v>       0.42321381       0.56637494       0.36819815 </v>
    <v>       0.43084627       0.56743231       0.58355376 </v>
    <v>       0.29634924       0.72884587       0.41399758 </v>
    <v>       0.39911584       0.73373953       0.55792134 </v>
    <v>       0.44356085       0.82317420       0.55258754 </v>
    <v>       0.30322081       0.59768269       0.56270692 </v>
    <v>       0.26028923       0.69456936       0.55653546 </v>
    <v>       0.17585106       0.54913836       0.41185359 </v>
    <v>       0.26521025       0.59435522       0.41682621 </v>
    <v>       0.39569548       0.69522836       0.41001490 </v>
    <v>       0.34083250       0.81826377       0.40852300 </v>
    <v>       0.17092572       0.64939892       0.55157525 </v>
    <v>       0.42232443       0.88537100       0.36833371 </v>
    <v>       0.10888130       0.56239709       0.36957808 </v>
    <v>       0.63198888       0.19659642       0.40786520 </v>
    <v>       0.67641540       0.28605081       0.41322857 </v>
    <v>       0.57515482       0.28115046       0.55974195 </v>
    <v>       0.53074912       0.19168876       0.55456041 </v>
    <v>       0.57352991       0.31554126       0.41672736 </v>
    <v>       0.52835352       0.35971933       0.41124856 </v>
    <v>       0.70822288       0.41690188       0.41043262 </v>
    <v>       0.79768589       0.46157332       0.40506830 </v>
    <v>       0.80231930       0.36788207       0.55647630 </v>
    <v>       0.71284998       0.32313112       0.56151295 </v>
    <v>       0.67447434       0.42172295       0.55467841 </v>
    <v>       0.62940500       0.46599917       0.54903085 </v>
    <v>       0.54985606       0.12971417       0.36872609 </v>
    <v>       0.46164227       0.96285981       0.30578189 </v>
    <v>       0.50947927       0.05236351       0.30592530 </v>
    <v>       0.86468899       0.44541986       0.36875107 </v>
    <v>       0.03159248       0.52307471       0.30682018 </v>
    <v>       0.94209889       0.48126983       0.30641914 </v>
    <v>       0.54062388       0.43929105       0.36822159 </v>
    <v>       0.50007917       0.47627964       0.30567296 </v>
    <v>       0.54358431       0.12326750       0.58412903 </v>
    <v>       0.43068328       0.89137664       0.58363973 </v>
    <v>       0.87058464       0.45028381       0.58421860 </v>
    <v>       0.10253597       0.56933344       0.58446086 </v>
    <v>       0.54979368       0.45460348       0.58283225 </v>
   </varray>
  </structure>
  <varray name="forces" >
   <v>       0.00179582      -0.00236647       0.00159340 </v>
   <v>      -0.00134464       0.00261068      -0.00114572 </v>
   <v>      -0.00100269      -0.00102092      -0.00314548 </v>
   <v>      -0.00316121       0.00149787       0.00180930 </v>
   <v>       0.00283379      -0.00099102       0.00152250 </v>
   <v>       0.00276594       0.00049844      -0.00184047 </v>
   <v>      -0.00372670       0.00119842       0.00296062 </v>
   <v>      -0.00066399      -0.00111977      -0.00083337 </v>
   <v>       0.00088061       0.00145738       0.00127813 </v>
   <v>       0.00034717      -0.00032753      -0.00192607 </v>
   <v>       0.00123811       0.00153605      -0.00208321 </v>
   <v>       0.00259486      -0.00239666      -0.00038020 </v>
   <v>       0.00045174       0.00322797      -0.00255546 </v>
   <v>      -0.00042837      -0.00136718      -0.00092974 </v>
   <v>      -0.00042227      -0.00014541       0.00178869 </v>
   <v>       0.00335520       0.00356668      -0.00190436 </v>
   <v>      -0.00017385      -0.00066686      -0.00006148 </v>
   <v>       0.00033089       0.00238630       0.00158515 </v>
   <v>      -0.00225681      -0.00127384       0.00181458 </v>
   <v>      -0.00197587      -0.00118223      -0.00210709 </v>
   <v>       0.00338320       0.00076036       0.00019054 </v>
   <v>      -0.00251251      -0.00305279       0.00164848 </v>
   <v>      -0.00148745      -0.00248772      -0.00144983 </v>
   <v>      -0.00032822      -0.00076196       0.00093498 </v>
   <v>       0.00119808      -0.00634799       0.00664402 </v>
   <v>       0.00279775       0.00055102       0.00466111 </v>
   <v>       0.00001504       0.00698390       0.00092325 </v>
   <v>      -0.00055405      -0.00025163       0.00114525 </v>
   <v>       0.00305647      -0.00063353      -0.00033656 </v>
   <v>       0.00064372      -0.00015540      -0.00145156 </v>
   <v>      -0.00054576      -0.00053233      -0.00026122 </v>
   <v>      -0.00198164       0.00268649       0.00006640 </v>
   <v>      -0.00003860      -0.00325151      -0.00059415 </v>
   <v>      -0.00065727      -0.00025025      -0.00060224 </v>
   <v>      -0.00148935      -0.00163693      -0.00090324 </v>
   <v>      -0.00001961      -0.00162182       0.00002939 </v>
   <v>      -0.00025900      -0.00512939      -0.00125232 </v>
   <v>      -0.00232487      -0.00308859       0.00229056 </v>
   <v>      -0.00125448      -0.00128261      -0.00240873 </v>
   <v>       0.00044395       0.00131964       0.00052057 </v>
   <v>      -0.00174242      -0.00002682       0.00196263 </v>
   <v>       0.00328418       0.00313431      -0.00005466 </v>
   <v>      -0.00073769       0.00012564      -0.00027215 </v>
   <v>       0.00040582      -0.00045919      -0.00222307 </v>
   <v>       0.00227825       0.00857979       0.00057936 </v>
   <v>       0.00142431      -0.00350440       0.00058030 </v>
   <v>       0.00350713       0.00632363       0.00146244 </v>
   <v>       0.00051371      -0.00174370       0.00309653 </v>
   <v>      -0.00175196       0.00490706      -0.00483803 </v>
   <v>      -0.00539514      -0.00205864       0.00163762 </v>
   <v>      -0.00223087      -0.00330618       0.00305384 </v>
   <v>       0.00442593      -0.00167438       0.00074604 </v>
   <v>       0.00023801      -0.00130232      -0.00161515 </v>
   <v>      -0.00303982      -0.00458254      -0.00291738 </v>
   <v>       0.00543066       0.00462905       0.00379217 </v>
   <v>      -0.00217517      -0.00182941      -0.00047515 </v>
   <v>      -0.00088654       0.00495847      -0.00047356 </v>
   <v>      -0.00567344      -0.00596425      -0.00007076 </v>
   <v>       0.00035633      -0.00284017      -0.00467206 </v>
   <v>       0.00038946       0.00009785       0.00226552 </v>
   <v>      -0.00368298       0.00426921      -0.00010952 </v>
   <v>       0.00067160       0.00092288       0.00162863 </v>
   <v>       0.00556278      -0.00034129      -0.00142436 </v>
   <v>      -0.00251689       0.00411849      -0.00052723 </v>
   <v>       0.00611945      -0.00382392      -0.00277741 </v>
   <v>      -0.00121813       0.00075726       0.00037962 </v>
   <v>       0.00277932       0.00283163       0.00256382 </v>
   <v>      -0.00038367       0.00004225       0.00040070 </v>
   <v>      -0.00002402       0.00216401       0.00342933 </v>
   <v>       0.00118839      -0.00156468       0.00839097 </v>
   <v>      -0.00631646       0.00047000       0.00237187 </v>
   <v>      -0.00296952       0.00429919       0.00137189 </v>
   <v>       0.00097625       0.00180630      -0.00115095 </v>
   <v>       0.00118939      -0.00056192       0.00015184 </v>
   <v>      -0.00071692      -0.00342149       0.00145642 </v>
   <v>      -0.00453571       0.00192773       0.00238401 </v>
   <v>       0.00050466      -0.00757338      -0.00426261 </v>
   <v>      -0.00007525      -0.00221928       0.00722869 </v>
   <v>       0.00410416       0.00283121       0.00242232 </v>
   <v>       0.00174937      -0.00153295       0.00285425 </v>
   <v>       0.00132810      -0.00309879      -0.00389599 </v>
   <v>       0.00349532       0.00167929      -0.00062498 </v>
   <v>      -0.00073470       0.00359380      -0.00021161 </v>
   <v>       0.00022967       0.00092715      -0.00042110 </v>
   <v>       0.00001501       0.00276071      -0.00361702 </v>
   <v>       0.00188743       0.00084324       0.00055892 </v>
   <v>      -0.00002114       0.00247198      -0.00298251 </v>
   <v>       0.00384454       0.00233030      -0.00150699 </v>
   <v>      -0.00025560      -0.00101255      -0.00176313 </v>
   <v>      -0.00194144       0.00169179       0.00008639 </v>
   <v>      -0.00034935       0.00104736       0.00170606 </v>
   <v>       0.00021151       0.00108663      -0.00078674 </v>
   <v>      -0.00069222       0.00189765      -0.00052887 </v>
   <v>      -0.00304803       0.00087719      -0.00304550 </v>
   <v>      -0.00018465      -0.00140580      -0.00294209 </v>
   <v>       0.00107782       0.00004179      -0.00502500 </v>
   <v>      -0.00199690       0.00321923       0.00291520 </v>
   <v>       0.00170357      -0.00453777       0.00227533 </v>
   <v>       0.00100532      -0.00243863      -0.00022405 </v>
   <v>       0.00236275      -0.00039198      -0.00298540 </v>
   <v>      -0.00341345       0.00022641       0.00246966 </v>
   <v>      -0.00102854      -0.00240936      -0.00351129 </v>
   <v>      -0.00400061       0.00035102      -0.00200052 </v>
   <v>      -0.00051693       0.00275402      -0.00031496 </v>
   <v>       0.00119013       0.00499915       0.00189130 </v>
   <v>       0.00001710       0.00068160      -0.00168941 </v>
   <v>      -0.00045527      -0.00184203      -0.00201164 </v>
   <v>      -0.00098182      -0.00299432      -0.00162811 </v>
   <v>      -0.00004856       0.00141159       0.00026373 </v>
   <v>      -0.00303871      -0.00223516       0.00133262 </v>
   <v>      -0.00066598       0.00051837       0.00321789 </v>
   <v>      -0.00255786       0.00281877      -0.00078809 </v>
   <v>      -0.00015165      -0.00219964      -0.00102463 </v>
   <v>       0.00450391       0.00017746      -0.00092695 </v>
   <v>       0.00065772       0.00028263       0.00186651 </v>
   <v>      -0.00033881       0.00124774      -0.00210866 </v>
   <v>       0.00045470      -0.00141430       0.00092084 </v>
   <v>       0.00055974       0.00159497       0.00182556 </v>
   <v>      -0.00091265      -0.00310136       0.00000971 </v>
   <v>       0.00117356      -0.00466189      -0.00250133 </v>
   <v>       0.00028557      -0.00115003      -0.00369616 </v>
   <v>       0.00078169      -0.00244204      -0.00215818 </v>
  </varray>
  <varray name="stress" >
   <v>      -0.01421582      -0.00040830      -0.00172074 </v>
   <v>      -0.00040830      -0.01311149      -0.00095712 </v>
   <v>      -0.00172074      -0.00095712      -0.12938566 </v>
  </varray>
  <energy>
   <i name="e_fr_energy">   -870.25818733 </i>
   <i name="e_wo_entrp">   -870.25818733 </i>
   <i name="e_0_energy">     -0.00000000 </i>
  </energy>
  <time name="totalsc"> 5333.03 5392.05</time>
  <eigenvalues>
   <array>
    <dimension dim="1">band</dimension>
    <dimension dim="2">kpoint</dimension>
    <dimension dim="3">spin</dimension>
    <field>eigene</field>
    <field>occ</field>
    <set>
     <set comment="spin 1">
      <set comment="kpoint 1">
       <r>  -24.2769    1.0000 </r>
       <r>  -24.2750    1.0000 </r>
       <r>  -23.5242    1.0000 </r>
       <r>  -23.5233    1.0000 </r>
       <r>  -23.5204    1.0000 </r>
       <r>  -22.9656    1.0000 </r>
       <r>  -22.9651    1.0000 </r>
       <r>  -22.9638    1.0000 </r>
       <r>  -21.4319    1.0000 </r>
       <r>  -21.4312    1.0000 </r>
       <r>  -21.4022    1.0000 </r>
       <r>  -21.4016    1.0000 </r>
       <r>  -21.0867    1.0000 </r>
       <r>  -21.0383    1.0000 </r>
       <r>  -20.8441    1.0000 </r>
       <r>  -20.8431    1.0000 </r>
       <r>  -20.8414    1.0000 </r>
       <r>  -20.0416    1.0000 </r>
       <r>  -20.0411    1.0000 </r>
       <r>  -20.0181    1.0000 </r>
       <r>  -20.0168    1.0000 </r>
       <r>  -19.8176    1.0000 </r>
       <r>  -19.7022    1.0000 </r>
       <r>  -19.1793    1.0000 </r>
       <r>  -19.1788    1.0000 </r>
       <r>  -18.7556    1.0000 </r>
       <r>  -18.6421    1.0000 </r>
       <r>  -18.6416    1.0000 </r>
       <r>  -18.4887    1.0000 </r>
       <r>  -18.4863    1.0000 </r>
       <r>  -18.4364    1.0000 </r>
       <r>  -18.4252    1.0000 </r>
       <r>  -18.3592    1.0000 </r>
       <r>  -18.3567    1.0000 </r>
       <r>  -18.1453    1.0000 </r>
       <r>  -18.1314    1.0000 </r>
       <r>  -18.1306    1.0000 </r>
       <r>  -17.8030    1.0000 </r>
       <r>  -17.8030    1.0000 </r>
       <r>  -17.6122    1.0000 </r>
       <r>  -16.9735    1.0000 </r>
       <r>  -16.3536    1.0000 </r>
       <r>  -16.3531    1.0000 </r>
       <r>  -15.8417    1.0000 </r>
       <r>  -15.8105    1.0000 </r>
       <r>  -15.8096    1.0000 </r>
       <r>  -15.7660    1.0000 </r>
       <r>  -15.5932    1.0000 </r>
       <r>  -15.5927    1.0000 </r>
       <r>  -15.5085    1.0000 </r>
       <r>  -15.5074    1.0000 </r>
       <r>  -15.3183    1.0000 </r>
       <r>  -15.0279    1.0000 </r>
       <r>  -15.0012    1.0000 </r>
       <r>  -14.9974    1.0000 </r>
       <r>  -14.9113    1.0000 </r>
       <r>  -14.9021    1.0000 </r>
       <r>  -14.8777    1.0000 </r>
       <r>  -14.5096    1.0000 </r>
       <r>  -14.4836    1.0000 </r>
       <r>  -14.4811    1.0000 </r>
       <r>  -14.3530    1.0000 </r>
       <r>  -14.3518    1.0000 </r>
       <r>  -14.0725    1.0000 </r>
       <r>  -13.9181    1.0000 </r>
       <r>  -13.3264    1.0000 </r>
       <r>  -13.3263    1.0000 </r>
       <r>  -13.3143    1.0000 </r>
       <r>  -13.2145    1.0000 </r>
       <r>  -13.2140    1.0000 </r>
       <r>  -13.0358    1.0000 </r>
       <r>  -13.0353    1.0000 </r>
       <r>  -12.8882    1.0000 </r>
       <r>  -12.7901    1.0000 </r>
       <r>  -12.7896    1.0000 </r>
       <r>  -12.5719    1.0000 </r>
       <r>  -12.5089    1.0000 </r>
       <r>  -12.5080    1.0000 </r>
       <r>  -12.1776    1.0000 </r>
       <r>  -12.0027    1.0000 </r>
       <r>  -11.9293    1.0000 </r>
       <r>  -11.9283    1.0000 </r>
       <r>  -11.7824    1.0000 </r>
       <r>  -11.7823    1.0000 </r>
       <r>  -11.6857    1.0000 </r>
       <r>  -11.4105    1.0000 </r>
       <r>  -11.3978    1.0000 </r>
       <r>  -11.3891    1.0000 </r>
       <r>  -11.1462    1.0000 </r>
       <r>  -11.1216    1.0000 </r>
       <r>  -11.1184    1.0000 </r>
       <r>  -11.0939    1.0000 </r>
       <r>  -10.9676    1.0000 </r>
       <r>  -10.9662    1.0000 </r>
       <r>  -10.9449    1.0000 </r>
       <r>  -10.9438    1.0000 </r>
       <r>  -10.7322    1.0000 </r>
       <r>  -10.7124    1.0000 </r>
       <r>  -10.7119    1.0000 </r>
       <r>  -10.6314    1.0000 </r>
       <r>  -10.4323    1.0000 </r>
       <r>  -10.4315    1.0000 </r>
       <r>  -10.3432    1.0000 </r>
       <r>  -10.2921    1.0000 </r>
       <r>  -10.2914    1.0000 </r>
       <r>  -10.2790    1.0000 </r>
       <r>  -10.2083    1.0000 </r>
       <r>  -10.2005    1.0000 </r>
       <r>  -10.1805    1.0000 </r>
       <r>  -10.1756    1.0000 </r>
       <r>  -10.1440    1.0000 </r>
       <r>  -10.1426    1.0000 </r>
       <r>  -10.0237    1.0000 </r>
       <r>  -10.0070    1.0000 </r>
       <r>  -10.0064    1.0000 </r>
       <r>   -9.9943    1.0000 </r>
       <r>   -9.9935    1.0000 </r>
       <r>   -9.5883    1.0000 </r>
       <r>   -9.5151    1.0000 </r>
       <r>   -9.5101    1.0000 </r>
       <r>   -9.5093    1.0000 </r>
       <r>   -9.4138    1.0000 </r>
       <r>   -9.4135    1.0000 </r>
       <r>   -9.4027    1.0000 </r>
       <r>   -9.3569    1.0000 </r>
       <r>   -9.3560    1.0000 </r>
       <r>   -9.3413    1.0000 </r>
       <r>   -9.2788    1.0000 </r>
       <r>   -9.1772    1.0000 </r>
       <r>   -9.1293    1.0000 </r>
       <r>   -9.1288    1.0000 </r>
       <r>   -9.0463    1.0000 </r>
       <r>   -9.0444    1.0000 </r>
       <r>   -9.0427    1.0000 </r>
       <r>   -9.0213    1.0000 </r>
       <r>   -9.0207    1.0000 </r>
       <r>   -8.9308    1.0000 </r>
       <r>   -8.9307    1.0000 </r>
       <r>   -8.5628    1.0000 </r>
       <r>   -8.4750    1.0000 </r>
       <r>   -8.4542    1.0000 </r>
       <r>   -8.4530    1.0000 </r>
       <r>   -8.3282    1.0000 </r>
       <r>   -8.2947    1.0000 </r>
       <r>   -8.2927    1.0000 </r>
       <r>   -8.1815    1.0000 </r>
       <r>   -8.1812    1.0000 </r>
       <r>   -8.1610    1.0000 </r>
       <r>   -8.1393    1.0000 </r>
       <r>   -8.1101    1.0000 </r>
       <r>   -8.1075    1.0000 </r>
       <r>   -8.0521    1.0000 </r>
       <r>   -8.0510    1.0000 </r>
       <r>   -7.7293    1.0000 </r>
       <r>   -7.5307    1.0000 </r>
       <r>   -7.4715    1.0000 </r>
       <r>   -7.4671    1.0000 </r>
       <r>   -7.1240    1.0000 </r>
       <r>   -7.1228    1.0000 </r>
       <r>   -7.0768    1.0000 </r>
       <r>   -6.9252    1.0000 </r>
       <r>   -6.8086    1.0000 </r>
       <r>   -6.8069    1.0000 </r>
       <r>   -6.4933    1.0000 </r>
       <r>   -6.4912    1.0000 </r>
       <r>   -6.3217    1.0000 </r>
       <r>   -6.3201    1.0000 </r>
       <r>   -6.2517    1.0000 </r>
       <r>   -6.2505    1.0000 </r>
       <r>   -6.1162    1.0000 </r>
       <r>   -6.1160    1.0000 </r>
       <r>   -5.9643    1.0000 </r>
       <r>   -5.6409    1.0000 </r>
       <r>   -5.6388    1.0000 </r>
       <r>   -5.6344    1.0000 </r>
       <r>   -5.5876    1.0000 </r>
       <r>   -5.5866    1.0000 </r>
       <r>   -5.5862    1.0000 </r>
       <r>   -5.4818    1.0000 </r>
       <r>   -5.4814    1.0000 </r>
       <r>   -5.2305    1.0000 </r>
       <r>   -5.1926    1.0000 </r>
       <r>   -5.1890    1.0000 </r>
       <r>   -4.5534    1.0000 </r>
       <r>   -4.3921    1.0000 </r>
       <r>   -2.3734    0.0000 </r>
       <r>   -2.3724    0.0000 </r>
       <r>   -2.1694    0.0000 </r>
       <r>   -2.1689    0.0000 </r>
       <r>   -2.1674    0.0000 </r>
       <r>   -2.1435    0.0000 </r>
       <r>   -1.6044    0.0000 </r>
       <r>   -1.5951    0.0000 </r>
       <r>   -1.5916    0.0000 </r>
       <r>   -1.5844    0.0000 </r>
       <r>   -1.3691    0.0000 </r>
       <r>   -1.3681    0.0000 </r>
       <r>   -1.1537    0.0000 </r>
       <r>   -1.0449    0.0000 </r>
       <r>   -1.0444    0.0000 </r>
       <r>   -1.0212    0.0000 </r>
       <r>   -1.0211    0.0000 </r>
       <r>   -0.8383    0.0000 </r>
       <r>   -0.8134    0.0000 </r>
       <r>   -0.8066    0.0000 </r>
       <r>   -0.4235    0.0000 </r>
       <r>   -0.3616    0.0000 </r>
       <r>   -0.3341    0.0000 </r>
       <r>   -0.3332    0.0000 </r>
       <r>   -0.2188    0.0000 </r>
       <r>   -0.2182    0.0000 </r>
       <r>   -0.1893    0.0000 </r>
       <r>   -0.1671    0.0000 </r>
       <r>   -0.0152    0.0000 </r>
       <r>   -0.0125    0.0000 </r>
       <r>   -0.0091    0.0000 </r>
       <r>    0.1200    0.0000 </r>
       <r>    0.1622    0.0000 </r>
       <r>    0.1624    0.0000 </r>
       <r>    0.1932    0.0000 </r>
       <r>    0.2977    0.0000 </r>
       <r>    0.2983    0.0000 </r>
       <r>    0.3712    0.0000 </r>
       <r>    0.3713    0.0000 </r>
       <r>    0.4059    0.0000 </r>
       <r>    0.4141    0.0000 </r>
       <r>    0.4142    0.0000 </r>
       <r>    0.4871    0.0000 </r>
       <r>    0.5184    0.0000 </r>
       <r>    0.5194    0.0000 </r>
       <r>    0.5685    0.0000 </r>
       <r>    0.6248    0.0000 </r>
       <r>    0.6457    0.0000 </r>
       <r>    0.6464    0.0000 </r>
       <r>    0.6604    0.0000 </r>
       <r>    0.6625    0.0000 </r>
       <r>    0.6658    0.0000 </r>
       <r>    0.6845    0.0000 </r>
       <r>    0.7356    0.0000 </r>
       <r>    0.7375    0.0000 </r>
       <r>    0.7720    0.0000 </r>
       <r>    0.7729    0.0000 </r>
       <r>    0.7878    0.0000 </r>
       <r>    0.7925    0.0000 </r>
       <r>    0.7956    0.0000 </r>
       <r>    0.8553    0.0000 </r>
       <r>    0.8865    0.0000 </r>
       <r>    0.9085    0.0000 </r>
       <r>    0.9102    0.0000 </r>
       <r>    0.9253    0.0000 </r>
       <r>    0.9403    0.0000 </r>
       <r>    0.9415    0.0000 </r>
       <r>    0.9490    0.0000 </r>
       <r>    0.9893    0.0000 </r>
       <r>    0.9907    0.0000 </r>
       <r>    1.0276    0.0000 </r>
      </set>
      <set comment="kpoint 2">
       <r>  -24.2769    1.0000 </r>
       <r>  -24.2750    1.0000 </r>
       <r>  -23.5242    1.0000 </r>
       <r>  -23.5233    1.0000 </r>
       <r>  -23.5204    1.0000 </r>
       <r>  -22.9656    1.0000 </r>
       <r>  -22.9651    1.0000 </r>
       <r>  -22.9638    1.0000 </r>
       <r>  -21.4320    1.0000 </r>
       <r>  -21.4311    1.0000 </r>
       <r>  -21.4023    1.0000 </r>
       <r>  -21.4016    1.0000 </r>
       <r>  -21.0866    1.0000 </r>
       <r>  -21.0384    1.0000 </r>
       <r>  -20.8441    1.0000 </r>
       <r>  -20.8431    1.0000 </r>
       <r>  -20.8414    1.0000 </r>
       <r>  -20.0416    1.0000 </r>
       <r>  -20.0411    1.0000 </r>
       <r>  -20.0181    1.0000 </r>
       <r>  -20.0168    1.0000 </r>
       <r>  -19.8175    1.0000 </r>
       <r>  -19.7025    1.0000 </r>
       <r>  -19.1792    1.0000 </r>
       <r>  -19.1784    1.0000 </r>
       <r>  -18.7578    1.0000 </r>
       <r>  -18.6421    1.0000 </r>
       <r>  -18.6398    1.0000 </r>
       <r>  -18.4887    1.0000 </r>
       <r>  -18.4863    1.0000 </r>
       <r>  -18.4363    1.0000 </r>
       <r>  -18.4252    1.0000 </r>
       <r>  -18.3589    1.0000 </r>
       <r>  -18.3564    1.0000 </r>
       <r>  -18.1453    1.0000 </r>
       <r>  -18.1315    1.0000 </r>
       <r>  -18.1306    1.0000 </r>
       <r>  -17.8055    1.0000 </r>
       <r>  -17.8030    1.0000 </r>
       <r>  -17.6096    1.0000 </r>
       <r>  -16.9745    1.0000 </r>
       <r>  -16.3536    1.0000 </r>
       <r>  -16.3522    1.0000 </r>
       <r>  -15.8433    1.0000 </r>
       <r>  -15.8100    1.0000 </r>
       <r>  -15.8091    1.0000 </r>
       <r>  -15.7660    1.0000 </r>
       <r>  -15.5936    1.0000 </r>
       <r>  -15.5930    1.0000 </r>
       <r>  -15.5081    1.0000 </r>
       <r>  -15.5076    1.0000 </r>
       <r>  -15.3172    1.0000 </r>
       <r>  -15.0284    1.0000 </r>
       <r>  -15.0019    1.0000 </r>
       <r>  -14.9973    1.0000 </r>
       <r>  -14.9115    1.0000 </r>
       <r>  -14.9013    1.0000 </r>
       <r>  -14.8771    1.0000 </r>
       <r>  -14.5133    1.0000 </r>
       <r>  -14.4838    1.0000 </r>
       <r>  -14.4780    1.0000 </r>
       <r>  -14.3529    1.0000 </r>
       <r>  -14.3517    1.0000 </r>
       <r>  -14.0722    1.0000 </r>
       <r>  -13.9183    1.0000 </r>
       <r>  -13.3264    1.0000 </r>
       <r>  -13.3263    1.0000 </r>
       <r>  -13.3144    1.0000 </r>
       <r>  -13.2144    1.0000 </r>
       <r>  -13.2139    1.0000 </r>
       <r>  -13.0360    1.0000 </r>
       <r>  -13.0358    1.0000 </r>
       <r>  -12.8879    1.0000 </r>
       <r>  -12.7901    1.0000 </r>
       <r>  -12.7897    1.0000 </r>
       <r>  -12.5719    1.0000 </r>
       <r>  -12.5090    1.0000 </r>
       <r>  -12.5080    1.0000 </r>
       <r>  -12.1775    1.0000 </r>
       <r>  -12.0035    1.0000 </r>
       <r>  -11.9291    1.0000 </r>
       <r>  -11.9278    1.0000 </r>
       <r>  -11.7825    1.0000 </r>
       <r>  -11.7822    1.0000 </r>
       <r>  -11.6854    1.0000 </r>
       <r>  -11.4144    1.0000 </r>
       <r>  -11.3979    1.0000 </r>
       <r>  -11.3853    1.0000 </r>
       <r>  -11.1461    1.0000 </r>
       <r>  -11.1218    1.0000 </r>
       <r>  -11.1185    1.0000 </r>
       <r>  -11.0937    1.0000 </r>
       <r>  -10.9679    1.0000 </r>
       <r>  -10.9660    1.0000 </r>
       <r>  -10.9450    1.0000 </r>
       <r>  -10.9437    1.0000 </r>
       <r>  -10.7322    1.0000 </r>
       <r>  -10.7126    1.0000 </r>
       <r>  -10.7118    1.0000 </r>
       <r>  -10.6312    1.0000 </r>
       <r>  -10.4335    1.0000 </r>
       <r>  -10.4315    1.0000 </r>
       <r>  -10.3422    1.0000 </r>
       <r>  -10.2920    1.0000 </r>
       <r>  -10.2913    1.0000 </r>
       <r>  -10.2788    1.0000 </r>
       <r>  -10.2083    1.0000 </r>
       <r>  -10.2005    1.0000 </r>
       <r>  -10.1805    1.0000 </r>
       <r>  -10.1756    1.0000 </r>
[...]
       <r>   -19.5095     0.0000    46.0000 </r>
       <r>   -19.4167     0.0000    46.0000 </r>
       <r>   -19.3239     0.0000    46.0000 </r>
       <r>   -19.2311     0.0000    46.0000 </r>
       <r>   -19.1383    28.2906    48.6258 </r>
       <r>   -19.0455    10.2994    49.6896 </r>
       <r>   -18.9526    10.8526    50.8412 </r>
       <r>   -18.8598     4.0083    51.3725 </r>
       <r>   -18.7670     4.2445    51.8274 </r>
       <r>   -18.6742     0.0000    52.0000 </r>
       <r>   -18.5814    27.2053    54.5251 </r>
       <r>   -18.4886    46.8562    58.9826 </r>
       <r>   -18.3957    43.0960    64.0000 </r>
       <r>   -18.3029    29.0417    66.6955 </r>
       <r>   -18.2101     9.8646    67.6833 </r>
       <r>   -18.1173    60.2256    73.4247 </r>
       <r>   -18.0245    11.8764    75.0035 </r>
       <r>   -17.9317     3.2713    75.3705 </r>
       <r>   -17.8388     2.9904    75.7109 </r>
       <r>   -17.7460    24.0565    78.0000 </r>
       <r>   -17.6532     0.0000    78.0000 </r>
       <r>   -17.5604     3.7287    78.3461 </r>
       <r>   -17.4676     3.0665    78.6526 </r>
       <r>   -17.3748     2.8333    78.9631 </r>
       <r>   -17.2820     8.0116    79.7770 </r>
       <r>   -17.1891     6.6332    80.4505 </r>
       <r>   -17.0963     6.7091    81.1910 </r>
       <r>   -17.0035     4.1395    81.6184 </r>
       <r>   -16.9107     3.2226    82.0000 </r>
       <r>   -16.8179     0.0000    82.0000 </r>
       <r>   -16.7251     0.0000    82.0000 </r>
       <r>   -16.6322     0.0000    82.0000 </r>
       <r>   -16.5394     0.0000    82.0000 </r>
       <r>   -16.4466     0.0000    82.0000 </r>
       <r>   -16.3538    11.9946    83.1133 </r>
       <r>   -16.2610     4.7326    84.7065 </r>
       <r>   -16.1682     6.3738    85.3586 </r>
       <r>   -16.0753     7.0569    86.1889 </r>
       <r>   -15.9825     8.5281    87.0918 </r>
       <r>   -15.8897     4.3951    87.5420 </r>
       <r>   -15.7969    17.3753    89.2462 </r>
       <r>   -15.7041    37.5973    94.0000 </r>
       <r>   -15.6113    22.6197    96.0995 </r>
       <r>   -15.5185    29.1051    99.5775 </r>
       <r>   -15.4256    19.1924   101.9506 </r>
       <r>   -15.3328     0.0261   102.0024 </r>
       <r>   -15.2400     7.1872   102.6695 </r>
       <r>   -15.1472     8.4560   103.5189 </r>
       <r>   -15.0544    29.3484   106.7290 </r>
       <r>   -14.9616    30.1624   109.8348 </r>
       <r>   -14.8687    28.5205   112.7498 </r>
       <r>   -14.7759    22.0807   115.0847 </r>
       <r>   -14.6831    20.3364   117.0553 </r>
       <r>   -14.5903     3.8391   117.4897 </r>
       <r>   -14.4975    21.4058   119.5535 </r>
       <r>   -14.4047    12.6189   121.0422 </r>
       <r>   -14.3118    48.0054   125.9580 </r>
       <r>   -14.2190     0.0000   126.0000 </r>
       <r>   -14.1262     0.0000   126.0000 </r>
       <r>   -14.0334     8.6311   126.8011 </r>
       <r>   -13.9406    24.6202   129.2531 </r>
       <r>   -13.8478     5.3547   130.0000 </r>
       <r>   -13.7549     0.0000   130.0000 </r>
       <r>   -13.6621     0.0000   130.0000 </r>
       <r>   -13.5693     0.0000   130.0000 </r>
       <r>   -13.4765     0.0000   130.0000 </r>
       <r>   -13.3837     0.0000   130.0000 </r>
       <r>   -13.2909    64.6417   135.9998 </r>
       <r>   -13.1981    23.7800   138.2072 </r>
       <r>   -13.1052    24.7601   141.0667 </r>
       <r>   -13.0124    30.1579   143.9998 </r>
       <r>   -12.9196     0.0000   144.0000 </r>
       <r>   -12.8268    19.0911   145.7720 </r>
       <r>   -12.7340    40.1906   150.0000 </r>
       <r>   -12.6412     0.0000   150.0000 </r>
       <r>   -12.5483    15.5550   151.4438 </r>
       <r>   -12.4555    40.1510   156.0000 </r>
       <r>   -12.3627     0.0000   156.0000 </r>
       <r>   -12.2699     0.0000   156.0000 </r>
       <r>   -12.1771     2.1677   156.2012 </r>
       <r>   -12.0843    25.0869   158.9307 </r>
       <r>   -11.9914     9.2420   159.9919 </r>
       <r>   -11.8986    27.3522   162.5387 </r>
       <r>   -11.8058    20.6525   164.6182 </r>
       <r>   -11.7130    30.8315   168.0000 </r>
       <r>   -11.6202    13.4435   169.2478 </r>
       <r>   -11.5274    15.7014   171.1593 </r>
       <r>   -11.4346     6.4935   171.8374 </r>
       <r>   -11.3417    20.4013   174.4036 </r>
       <r>   -11.2489    11.1734   175.5374 </r>
       <r>   -11.1561    16.5229   177.2689 </r>
       <r>   -11.0633    66.3278   183.9955 </r>
       <r>   -10.9705    21.1565   185.9637 </r>
       <r>   -10.8777    47.3275   192.0000 </r>
       <r>   -10.7848     0.0000   192.0000 </r>
       <r>   -10.6920    64.6274   197.9984 </r>
       <r>   -10.5992    10.8691   199.0088 </r>
       <r>   -10.5064    18.2624   201.2304 </r>
       <r>   -10.4136    28.6514   203.9938 </r>
       <r>   -10.3208     4.4091   204.4092 </r>
       <r>   -10.2279    66.0460   210.7693 </r>
       <r>   -10.1351   129.0752   222.8527 </r>
       <r>   -10.0423    14.3754   225.4695 </r>
       <r>    -9.9495    89.7401   234.0000 </r>
       <r>    -9.8567     0.0000   234.0000 </r>
       <r>    -9.7639     0.0000   234.0000 </r>
       <r>    -9.6711     0.0000   234.0000 </r>
       <r>    -9.5782     5.1373   234.4768 </r>
       <r>    -9.4854    89.2512   243.0527 </r>
       <r>    -9.3926    45.9085   247.4624 </r>
       <r>    -9.2998    40.0399   252.6220 </r>
       <r>    -9.2070    34.8353   256.0012 </r>
       <r>    -9.1142    64.2074   261.9607 </r>
       <r>    -9.0213    68.5146   268.3592 </r>
       <r>    -8.9285    54.7443   275.5572 </r>
       <r>    -8.8357     0.0000   276.0000 </r>
       <r>    -8.7429     0.0000   276.0000 </r>
       <r>    -8.6501     0.0000   276.0000 </r>
       <r>    -8.5573     4.4144   276.4097 </r>
       <r>    -8.4644    35.4662   280.1611 </r>
       <r>    -8.3716    31.4808   285.0593 </r>
       <r>    -8.2788    32.4479   288.3463 </r>
       <r>    -8.1860    37.9582   292.1249 </r>
       <r>    -8.0932    71.2745   300.6156 </r>
       <r>    -8.0004    53.3881   306.0000 </r>
       <r>    -7.9076     0.0000   306.0000 </r>
       <r>    -7.8147     0.0000   306.0000 </r>
       <r>    -7.7219     4.6580   306.4323 </r>
       <r>    -7.6291    24.3760   309.0638 </r>
       <r>    -7.5363     7.1614   309.8653 </r>
       <r>    -7.4435    24.6519   312.2881 </r>
       <r>    -7.3507     4.8608   312.8183 </r>
       <r>    -7.2578    11.1736   313.9052 </r>
       <r>    -7.1650    11.6425   315.1812 </r>
       <r>    -7.0722    40.4076   319.0514 </r>
       <r>    -6.9794    13.1481   321.5602 </r>
       <r>    -6.8866     3.9471   322.0000 </r>
       <r>    -6.7938    23.0593   324.1403 </r>
       <r>    -6.7009     3.5385   324.5953 </r>
       <r>    -6.6081     3.6279   324.9706 </r>
       <r>    -6.5153     9.6053   325.9252 </r>
       <r>    -6.4225    52.6921   330.9614 </r>
       <r>    -6.3297     8.5238   331.8579 </r>
       <r>    -6.2369    43.9641   338.0806 </r>
       <r>    -6.1441     7.1342   339.6975 </r>
       <r>    -6.0512    24.0472   342.0000 </r>
       <r>    -5.9584     1.3231   342.1228 </r>
       <r>    -5.8656     3.7520   342.5820 </r>
       <r>    -5.7728     3.6993   342.9769 </r>
       <r>    -5.6800    11.4229   344.0945 </r>
       <r>    -5.5872   102.6267   353.7932 </r>
       <r>    -5.4943     7.4322   357.7571 </r>
       <r>    -5.4015    20.8954   360.0000 </r>
       <r>    -5.3087     0.0000   360.0000 </r>
       <r>    -5.2159     9.4663   360.8786 </r>
       <r>    -5.1231    42.9081   366.0000 </r>
       <r>    -5.0303     0.0000   366.0000 </r>
       <r>    -4.9374     0.0000   366.0000 </r>
       <r>    -4.8446     0.0000   366.0000 </r>
       <r>    -4.7518     0.0000   366.0000 </r>
       <r>    -4.6590     0.0000   366.0000 </r>
       <r>    -4.5662     0.0801   366.0074 </r>
       <r>    -4.4734    20.2225   367.8844 </r>
       <r>    -4.3806    19.2399   369.9879 </r>
       <r>    -4.2877     0.0000   370.0000 </r>
       <r>    -4.1949     0.0000   370.0000 </r>
       <r>    -4.1021     0.0000   370.0000 </r>
       <r>    -4.0093     0.0000   370.0000 </r>
       <r>    -3.9165     0.0000   370.0000 </r>
       <r>    -3.8237     0.0000   370.0000 </r>
       <r>    -3.7308     0.0000   370.0000 </r>
       <r>    -3.6380     0.0000   370.0000 </r>
       <r>    -3.5452     0.0000   370.0000 </r>
       <r>    -3.4524     0.0000   370.0000 </r>
       <r>    -3.3596     0.0000   370.0000 </r>
       <r>    -3.2668     0.0000   370.0000 </r>
       <r>    -3.1739     0.0000   370.0000 </r>
       <r>    -3.0811     0.0000   370.0000 </r>
       <r>    -2.9883     0.0000   370.0000 </r>
       <r>    -2.8955     0.0000   370.0000 </r>
       <r>    -2.8027     0.0000   370.0000 </r>
       <r>    -2.7099     0.0000   370.0000 </r>
       <r>    -2.6171     0.0000   370.0000 </r>
       <r>    -2.5242     0.0000   370.0000 </r>
       <r>    -2.4314     0.0000   370.0000 </r>
       <r>    -2.3386    29.7161   372.7581 </r>
       <r>    -2.2458    17.0582   374.5170 </r>
       <r>    -2.1530    71.4092   381.5624 </r>
       <r>    -2.0602     0.0000   382.0000 </r>
       <r>    -1.9673     0.0000   382.0000 </r>
       <r>    -1.8745     0.0000   382.0000 </r>
       <r>    -1.7817     0.0000   382.0000 </r>
       <r>    -1.6889     0.0000   382.0000 </r>
       <r>    -1.5961    30.5431   384.8349 </r>
       <r>    -1.5033     9.2196   389.0255 </r>
       <r>    -1.4104    17.5189   390.9944 </r>
       <r>    -1.3176    30.1545   394.0000 </r>
       <r>    -1.2248     0.0000   394.0000 </r>
       <r>    -1.1320     8.9226   394.8282 </r>
       <r>    -1.0392    51.4257   399.8453 </r>
       <r>    -0.9464    47.2314   405.4705 </r>
       <r>    -0.8535     3.9350   405.8668 </r>
       <r>    -0.7607    25.0200   408.2566 </r>
       <r>    -0.6679     3.3808   408.6141 </r>
       <r>    -0.5751     3.9647   409.0349 </r>
       <r>    -0.4823    10.6327   410.1903 </r>
       <r>    -0.3895    38.6045   413.9170 </r>
       <r>    -0.2967    35.8803   418.0000 </r>
       <r>    -0.2038    27.5854   420.5604 </r>
       <r>    -0.1110    58.3764   426.3657 </r>
       <r>    -0.0182    13.1670   428.0273 </r>
       <r>     0.0746    42.8187   432.8857 </r>
       <r>     0.1674    32.5364   436.2547 </r>
       <r>     0.2602    30.1796   440.0061 </r>
       <r>     0.3531    47.4774   444.4127 </r>
       <r>     0.4459    74.7245   452.2829 </r>
       <r>     0.5387    69.8600   459.9245 </r>
       <r>     0.6315    65.1108   466.7495 </r>
       <r>     0.7243    86.4284   476.0105 </r>
       <r>     0.8171   103.2065   486.8270 </r>
       <r>     0.9100   113.6111   498.4603 </r>
       <r>     1.0028   108.5333   509.8835 </r>
       <r>     1.0956     9.9797   512.0000 </r>
       <r>     1.1884     0.0000   512.0000 </r>
       <r>     1.2812     0.0000   512.0000 </r>
       <r>     1.3740     0.0000   512.0000 </r>
       <r>     1.4668     0.0000   512.0000 </r>
       <r>     1.5597     0.0000   512.0000 </r>
       <r>     1.6525     0.0000   512.0000 </r>
       <r>     1.7453     0.0000   512.0000 </r>
       <r>     1.8381     0.0000   512.0000 </r>
       <r>     1.9309     0.0000   512.0000 </r>
       <r>     2.0237     0.0000   512.0000 </r>
       <r>     2.1166     0.0000   512.0000 </r>
       <r>     2.2094     0.0000   512.0000 </r>
       <r>     2.3022     0.0000   512.0000 </r>
      </set>
     </set>
    </array>
   </total>
  </dos>
 </calculation>
 <structure name="finalpos" >
  <crystal>
   <varray name="basis" >
    <v>      31.93629196       0.00883397       0.00000000 </v>
    <v>     -15.96039400      27.65247220       0.00000000 </v>
    <v>       0.00000000       0.00000000      20.00000000 </v>
   </varray>
   <i name="volume">  17665.16838158 </i>
   <varray name="rec_basis" >
    <v>       0.03130734       0.01806990       0.00000000 </v>
    <v>      -0.00001000       0.03615736       0.00000000 </v>
    <v>       0.00000000       0.00000000       0.05000000 </v>
   </varray>
  </crystal>
  <varray name="positions" >
   <v>       0.33343191       0.60919300       0.52814656 </v>
   <v>       0.35877610       0.58427676       0.52500252 </v>
   <v>       0.39737912       0.59817515       0.47999382 </v>
   <v>       0.41016160       0.63855508       0.43890357 </v>
   <v>       0.38525677       0.66391613       0.44209424 </v>
   <v>       0.47296797       0.52003873       0.47634379 </v>
   <v>       0.42346848       0.57101691       0.47587500 </v>
   <v>       0.43454052       0.55762472       0.41522735 </v>
   <v>       0.45909297       0.53120922       0.41385627 </v>
   <v>       0.46941114       0.51499924       0.35248092 </v>
   <v>       0.43849516       0.55717898       0.53471671 </v>
   <v>       0.34483224       0.72523575       0.48618564 </v>
   <v>       0.26885911       0.64771106       0.48678430 </v>
   <v>       0.34630521       0.64926800       0.48651578 </v>
   <v>       0.32874690       0.74962775       0.44417561 </v>
   <v>       0.39566718       0.82745082       0.47985367 </v>
   <v>       0.41116487       0.80267440       0.52222635 </v>
   <v>       0.38639333       0.75242693       0.52527961 </v>
   <v>       0.24163667       0.66259371       0.52492793 </v>
   <v>       0.16662384       0.59599838       0.48097616 </v>
   <v>       0.19421393       0.58123198       0.44340805 </v>
   <v>       0.24445202       0.60643947       0.44619137 </v>
   <v>       0.35394016       0.79987042       0.44113665 </v>
   <v>       0.19140722       0.63699555       0.52209501 </v>
   <v>       0.42248586       0.88068835       0.47596972 </v>
   <v>       0.11341428       0.56953049       0.47704788 </v>
   <v>       0.62861578       0.28960979       0.48657813 </v>
   <v>       0.70455813       0.36693066       0.48619640 </v>
   <v>       0.62718204       0.36566087       0.48594500 </v>
   <v>       0.58577454       0.34861129       0.44559763 </v>
   <v>       0.56059898       0.37367862       0.44250417 </v>
   <v>       0.57554805       0.41632439       0.47944858 </v>
   <v>       0.61679477       0.43284534       0.52012211 </v>
   <v>       0.64235060       0.40815044       0.52332105 </v>
   <v>       0.64437193       0.26522362       0.44403898 </v>
   <v>       0.61919914       0.21497045       0.44106725 </v>
   <v>       0.57784560       0.18741462       0.48047497 </v>
   <v>       0.56282902       0.21220612       0.52362670 </v>
   <v>       0.58758485       0.26245152       0.52662377 </v>
   <v>       0.72899376       0.40618102       0.44225502 </v>
   <v>       0.77923278       0.43107353       0.43931704 </v>
   <v>       0.80670654       0.41797755       0.48016740 </v>
   <v>       0.78187087       0.37894780       0.52449246 </v>
   <v>       0.73162518       0.35362273       0.52740524 </v>
   <v>       0.55080505       0.13417462       0.47645006 </v>
   <v>       0.49971001       0.03370180       0.47698156 </v>
   <v>       0.51305837       0.05872015       0.41445014 </v>
   <v>       0.53946013       0.10967250       0.41582598 </v>
   <v>       0.47322019       0.98115384       0.47689464 </v>
   <v>       0.43311489       0.90531698       0.41548847 </v>
   <v>       0.45928605       0.95627384       0.41428715 </v>
   <v>       0.47264704       0.98290756       0.35282172 </v>
   <v>       0.49896101       0.03222016       0.35289887 </v>
   <v>       0.85994299       0.44418337       0.47645077 </v>
   <v>       0.96040025       0.49371551       0.47748832 </v>
   <v>       0.93553115       0.48072077       0.41484007 </v>
   <v>       0.88459138       0.45609134       0.41594103 </v>
   <v>       0.01294815       0.51981513       0.47761328 </v>
   <v>       0.08888345       0.55425466       0.41662478 </v>
   <v>       0.03794765       0.52946081       0.41522392 </v>
   <v>       0.01144816       0.51493641       0.35369076 </v>
   <v>       0.96214783       0.49189128       0.35346755 </v>
   <v>       0.54892386       0.44294195       0.47553006 </v>
   <v>       0.49903316       0.49354985       0.47630110 </v>
   <v>       0.50796668       0.47757042       0.41394173 </v>
   <v>       0.53291710       0.45154798       0.41524540 </v>
   <v>       0.49256185       0.48881388       0.35256297 </v>
   <v>       0.53493410       0.10533549       0.53528514 </v>
   <v>       0.43880387       0.90940476       0.53487951 </v>
   <v>       0.88862840       0.45847060       0.53546093 </v>
   <v>       0.08459555       0.55838064       0.53571704 </v>
   <v>       0.53832015       0.46111126       0.53417405 </v>
   <v>       0.46242717       0.53329239       0.53550620 </v>
   <v>       0.31994709       0.67411556       0.48895274 </v>
   <v>       0.65339153       0.34077012       0.48866930 </v>
   <v>       0.51093233       0.05752342       0.53617790 </v>
   <v>       0.46264003       0.95721060       0.53597558 </v>
   <v>       0.93642710       0.48232189       0.53657518 </v>
   <v>       0.03679198       0.53444086       0.53664913 </v>
   <v>       0.51431301       0.48492274       0.53520646 </v>
   <v>       0.34806086       0.55299872       0.55733053 </v>
   <v>       0.44040785       0.65042365       0.40425000 </v>
   <v>       0.45806077       0.52377752       0.30552850 </v>
   <v>       0.42321381       0.56637494       0.36819815 </v>
   <v>       0.43084627       0.56743231       0.58355376 </v>
   <v>       0.29634924       0.72884587       0.41399758 </v>
   <v>       0.39911584       0.73373953       0.55792134 </v>
   <v>       0.44356085       0.82317420       0.55258754 </v>
   <v>       0.30322081       0.59768269       0.56270692 </v>
   <v>       0.26028923       0.69456936       0.55653546 </v>
   <v>       0.17585106       0.54913836       0.41185359 </v>
   <v>       0.26521025       0.59435522       0.41682621 </v>
   <v>       0.39569548       0.69522836       0.41001490 </v>
   <v>       0.34083250       0.81826377       0.40852300 </v>
   <v>       0.17092572       0.64939892       0.55157525 </v>
   <v>       0.42232443       0.88537100       0.36833371 </v>
   <v>       0.10888130       0.56239709       0.36957808 </v>
   <v>       0.63198888       0.19659642       0.40786520 </v>
   <v>       0.67641540       0.28605081       0.41322857 </v>
   <v>       0.57515482       0.28115046       0.55974195 </v>
   <v>       0.53074912       0.19168876       0.55456041 </v>
   <v>       0.57352991       0.31554126       0.41672736 </v>
   <v>       0.52835352       0.35971933       0.41124856 </v>
   <v>       0.70822288       0.41690188       0.41043262 </v>
   <v>       0.79768589       0.46157332       0.40506830 </v>
   <v>       0.80231930       0.36788207       0.55647630 </v>
   <v>       0.71284998       0.32313112       0.56151295 </v>
   <v>       0.67447434       0.42172295       0.55467841 </v>
   <v>       0.62940500       0.46599917       0.54903085 </v>
   <v>       0.54985606       0.12971417       0.36872609 </v>
   <v>       0.46164227       0.96285981       0.30578189 </v>
   <v>       0.50947927       0.05236351       0.30592530 </v>
   <v>       0.86468899       0.44541986       0.36875107 </v>
   <v>       0.03159248       0.52307471       0.30682018 </v>
   <v>       0.94209889       0.48126983       0.30641914 </v>
   <v>       0.54062388       0.43929105       0.36822159 </v>
   <v>       0.50007917       0.47627964       0.30567296 </v>
   <v>       0.54358431       0.12326750       0.58412903 </v>
   <v>       0.43068328       0.89137664       0.58363973 </v>
   <v>       0.87058464       0.45028381       0.58421860 </v>
   <v>       0.10253597       0.56933344       0.58446086 </v>
   <v>       0.54979368       0.45460348       0.58283225 </v>
  </varray>
 </structure>
</modeling>
