<?xml version="1.0" encoding="ISO-8859-1"?>
<modeling>
 <generator>
  <i name="program" type="string">vasp </i>
  <i name="version" type="string">5.4.4.18Apr17-6-g9f103f2a35  </i>
  <i name="subversion" type="string">(build Jun 07 2020 16:50:00) complex            parallel </i>
  <i name="platform" type="string">LinuxIFC </i>
  <i name="date" type="string">2023 02 25 </i>
  <i name="time" type="string">13:10:59 </i>
 </generator>
 <incar>
  <i type="string" name="SYSTEM">Simulation for cell shape cell volume r</i>
  <i type="int" name="ISTART">     1</i>
  <i type="string" name="PREC">high</i>
  <i type="string" name="ALGO">48</i>
  <i type="int" name="ICHARG">    11</i>
  <i type="int" name="NELM">   200</i>
  <i type="int" name="IBRION">    -1</i>
  <i name="EDIFF">      0.00001000</i>
  <i name="EDIFFG">     -0.01000000</i>
  <i type="int" name="NSW">     0</i>
  <i type="int" name="ISIF">     2</i>
  <i name="ENCUT">    500.00000000</i>
  <i name="POTIM">      0.30000000</i>
  <i type="string" name="LREAL">A</i>
  <i type="int" name="ISMEAR">     0</i>
  <i name="SIGMA">      0.01000000</i>
  <i type="int" name="NWRITE">     0</i>
  <i type="logical" name="LWAVE"> F  </i>
  <i type="logical" name="LCHARG"> F  </i>
  <v type="int" name="KPOINT_BSE">    -1     0     0     0</v>
  <i type="int" name="NELM">   200</i>
  <i type="string" name="GGA">PE</i>
 </incar>
 <structure name="primitive_cell" >
  <crystal>
   <varray name="basis" >
    <v>      29.47767834      -0.00000002       0.00000000 </v>
    <v>     -14.73883915      25.52841829       0.00000000 </v>
    <v>       0.00000000       0.00000000      20.00000000 </v>
   </varray>
   <i name="volume">  15050.37005263 </i>
   <varray name="rec_basis" >
    <v>       0.03392397       0.01958602       0.00000000 </v>
    <v>       0.00000000       0.03917203       0.00000000 </v>
    <v>       0.00000000       0.00000000       0.05000000 </v>
   </varray>
  </crystal>
  <varray name="positions" >
   <v>       0.38716449      -0.30634066       0.49543121 </v>
   <v>       0.35900665      -0.28184387       0.49556545 </v>
   <v>       0.35914949      -0.35900665       0.49556545 </v>
   <v>       0.30634066      -0.30649485       0.49543121 </v>
   <v>       0.30649485      -0.38716449       0.49543121 </v>
   <v>       0.38819543      -0.38786934       0.49726038 </v>
   <v>       0.38786934      -0.22393523       0.49726038 </v>
   <v>       0.46315551      -0.21789035      -0.48892648 </v>
   <v>       0.46358370      -0.31884640       0.48345672 </v>
   <v>       0.28184387      -0.35914949       0.49556545 </v>
   <v>       0.44243229      -0.19607033      -0.49332430 </v>
   <v>       0.44297418      -0.36114410       0.49071748 </v>
   <v>       0.36149739      -0.44243229      -0.49332430 </v>
   <v>       0.36114410      -0.19588172       0.49071748 </v>
   <v>       0.31895414      -0.46315551      -0.48892648 </v>
   <v>       0.31884640      -0.21756990       0.48345672 </v>
   <v>       0.22393523      -0.38819543       0.49726038 </v>
   <v>       0.47031389      -0.38826419       0.49406982 </v>
   <v>       0.46924066      -0.14169615      -0.48912093 </v>
   <v>       0.21789035      -0.31895414      -0.48892648 </v>
   <v>       0.21756990      -0.46358370       0.48345672 </v>
   <v>       0.38906319      -0.46924066      -0.48912093 </v>
   <v>       0.38826419      -0.14142192       0.49406982 </v>
   <v>      -0.48840925      -0.12044090      -0.48165166 </v>
   <v>      -0.48708504      -0.36711030       0.48935090 </v>
   <v>       0.19607033      -0.36149739      -0.49332430 </v>
   <v>       0.19588172      -0.44297418       0.49071748 </v>
   <v>       0.44398549      -0.44264310      -0.49486407 </v>
   <v>       0.44264310      -0.11337141      -0.49486407 </v>
   <v>       0.36796834       0.48840925      -0.48165166 </v>
   <v>       0.36711030      -0.11997474       0.48935090 </v>
   <v>       0.47529615      -0.09855782      -0.37576883 </v>
   <v>       0.42614603      -0.47529615      -0.37576883 </v>
   <v>       0.14169615      -0.38906319      -0.48912093 </v>
   <v>       0.14142192      -0.47031389       0.49406982 </v>
   <v>       0.47363178      -0.47107620      -0.49090884 </v>
   <v>       0.47107620      -0.05529203      -0.49090884 </v>
   <v>      -0.49383975      -0.44518699       0.41053202 </v>
   <v>      -0.49874283      -0.05616467      -0.37177359 </v>
   <v>       0.11337141      -0.44398549      -0.49486407 </v>
   <v>       0.44518699      -0.04865276       0.41053202 </v>
   <v>       0.12044090      -0.36796834      -0.48165166 </v>
   <v>       0.11997474       0.48708504       0.48935090 </v>
   <v>      -0.49529154      -0.46808487       0.45418929 </v>
   <v>      -0.45906055      -0.04878795      -0.36035421 </v>
   <v>       0.44257816       0.49874283      -0.37177359 </v>
   <v>      -0.49945677      -0.02774144      -0.43415029 </v>
   <v>       0.46808487      -0.02720667       0.45418929 </v>
   <v>       0.47171533       0.49945677      -0.43415029 </v>
   <v>       0.48872164      -0.04253934      -0.32802867 </v>
   <v>       0.46873902      -0.48872164      -0.32802867 </v>
   <v>       0.41027260       0.45906055      -0.36035421 </v>
   <v>       0.09855782      -0.42614603      -0.37576883 </v>
   <v>       0.05529203      -0.47363178      -0.49090884 </v>
   <v>      -0.46808225      -0.49525147       0.45418427 </v>
   <v>      -0.47175372       0.02773114      -0.43414920 </v>
   <v>       0.49525147       0.02716922       0.45418427 </v>
   <v>       0.49948486       0.47175372      -0.43414920 </v>
   <v>       0.04865276       0.49383975       0.41053202 </v>
   <v>       0.05616467      -0.44257816      -0.37177359 </v>
   <v>      -0.44518336      -0.49377605       0.41051520 </v>
   <v>       0.02720667       0.49529154       0.45418929 </v>
   <v>       0.02774144      -0.47171533      -0.43415029 </v>
   <v>       0.04878795      -0.41027260      -0.36035421 </v>
   <v>      -0.47103888       0.47369201      -0.49090749 </v>
   <v>      -0.47369201       0.05526911      -0.49090749 </v>
   <v>       0.49377605       0.04859270       0.41051520 </v>
   <v>       0.04253934      -0.46873902      -0.32802867 </v>
   <v>      -0.41027210       0.04893325      -0.36036932 </v>
   <v>      -0.46881500       0.04250768      -0.32802572 </v>
   <v>      -0.44265702       0.05618929      -0.37177108 </v>
   <v>      -0.48867732       0.46881500      -0.32802572 </v>
   <v>       0.49884631       0.44265702      -0.37177108 </v>
   <v>       0.45920535       0.41027210      -0.36036932 </v>
   <v>      -0.02716922       0.46808225       0.45418427 </v>
   <v>      -0.42633172       0.09856730      -0.37577917 </v>
   <v>      -0.02773114      -0.49948486      -0.43414920 </v>
   <v>      -0.44258568       0.44406146      -0.49486639 </v>
   <v>      -0.44406146       0.11335286      -0.49486639 </v>
   <v>      -0.47510097       0.42633172      -0.37577917 </v>
   <v>      -0.36702502      -0.48700923       0.48951947 </v>
   <v>      -0.36804668       0.12040513      -0.48172202 </v>
   <v>      -0.04859270       0.44518336       0.41051520 </v>
   <v>      -0.05526911       0.47103888      -0.49090749 </v>
   <v>       0.48700923       0.11998422       0.48951947 </v>
   <v>       0.48845181       0.36804668      -0.48172202 </v>
   <v>      -0.38819886       0.47037950       0.49412093 </v>
   <v>      -0.38913525       0.14166399      -0.48920270 </v>
   <v>      -0.04250768       0.48867732      -0.32802572 </v>
   <v>      -0.05618929      -0.49884631      -0.37177108 </v>
   <v>      -0.04893325      -0.45920535      -0.36036932 </v>
   <v>      -0.47037950       0.14142163       0.49412093 </v>
   <v>      -0.46920077       0.38913525      -0.48920270 </v>
   <v>      -0.09856730       0.47510097      -0.37577917 </v>
   <v>      -0.11335286       0.44258568      -0.49486639 </v>
   <v>      -0.36110439       0.44301585       0.49068739 </v>
   <v>      -0.36154968       0.19603495      -0.49348339 </v>
   <v>      -0.44301585       0.19587976       0.49068739 </v>
   <v>      -0.44241537       0.36154968      -0.49348339 </v>
   <v>      -0.11998422       0.36702502       0.48951947 </v>
   <v>      -0.12040513      -0.48845181      -0.48172202 </v>
   <v>      -0.31880647       0.46362047       0.48345812 </v>
   <v>      -0.31900293       0.21783539      -0.48913737 </v>
   <v>      -0.14142163       0.38819886       0.49412093 </v>
   <v>      -0.14166399       0.46920077      -0.48920270 </v>
   <v>      -0.38822456       0.22392218       0.49711483 </v>
   <v>      -0.38785326       0.38822456       0.49711483 </v>
   <v>      -0.46362047       0.21757306       0.48345812 </v>
   <v>      -0.46316168       0.31900293      -0.48913737 </v>
   <v>      -0.19587976       0.36110439       0.49068739 </v>
   <v>      -0.19603495       0.44241537      -0.49348339 </v>
   <v>      -0.35914226       0.28183839       0.49539979 </v>
   <v>      -0.35901934       0.35914226       0.49539979 </v>
   <v>      -0.21757306       0.31880647       0.48345812 </v>
   <v>      -0.21783539       0.46316168      -0.48913737 </v>
   <v>      -0.22392218       0.38785326       0.49711483 </v>
   <v>      -0.30648469       0.30633995       0.49526956 </v>
   <v>      -0.30633995       0.38717536       0.49526956 </v>
   <v>      -0.38717536       0.30648469       0.49526956 </v>
   <v>      -0.28183839       0.35901934       0.49539979 </v>
  </varray>
 </structure>
 <varray name="primitive_index" >
  <v type="int" >        1 </v>
  <v type="int" >        9 </v>
  <v type="int" >       10 </v>
  <v type="int" >        3 </v>
  <v type="int" >        2 </v>
  <v type="int" >       12 </v>
  <v type="int" >       18 </v>
  <v type="int" >       76 </v>
  <v type="int" >       86 </v>
  <v type="int" >       11 </v>
  <v type="int" >       19 </v>
  <v type="int" >       13 </v>
  <v type="int" >       17 </v>
  <v type="int" >       23 </v>
  <v type="int" >       83 </v>
  <v type="int" >       78 </v>
  <v type="int" >       24 </v>
  <v type="int" >       14 </v>
  <v type="int" >       20 </v>
  <v type="int" >       79 </v>
  <v type="int" >       81 </v>
  <v type="int" >       16 </v>
  <v type="int" >       22 </v>
  <v type="int" >       75 </v>
  <v type="int" >       85 </v>
  <v type="int" >       25 </v>
  <v type="int" >       29 </v>
  <v type="int" >       15 </v>
  <v type="int" >       21 </v>
  <v type="int" >       84 </v>
  <v type="int" >       77 </v>
  <v type="int" >      105 </v>
  <v type="int" >       99 </v>
  <v type="int" >       26 </v>
  <v type="int" >       28 </v>
  <v type="int" >       52 </v>
  <v type="int" >       58 </v>
  <v type="int" >      116 </v>
  <v type="int" >       61 </v>
  <v type="int" >       27 </v>
  <v type="int" >      118 </v>
  <v type="int" >       80 </v>
  <v type="int" >       82 </v>
  <v type="int" >       69 </v>
  <v type="int" >      107 </v>
  <v type="int" >       55 </v>
  <v type="int" >       59 </v>
  <v type="int" >       71 </v>
  <v type="int" >       53 </v>
  <v type="int" >      106 </v>
  <v type="int" >      100 </v>
  <v type="int" >      101 </v>
  <v type="int" >      111 </v>
  <v type="int" >       64 </v>
  <v type="int" >       68 </v>
  <v type="int" >       60 </v>
  <v type="int" >       70 </v>
  <v type="int" >       54 </v>
  <v type="int" >       74 </v>
  <v type="int" >       66 </v>
  <v type="int" >      117 </v>
  <v type="int" >        8 </v>
  <v type="int" >        7 </v>
  <v type="int" >      112 </v>
  <v type="int" >       51 </v>
  <v type="int" >       57 </v>
  <v type="int" >      119 </v>
  <v type="int" >       73 </v>
  <v type="int" >      109 </v>
  <v type="int" >      110 </v>
  <v type="int" >       62 </v>
  <v type="int" >      104 </v>
  <v type="int" >       56 </v>
  <v type="int" >      103 </v>
  <v type="int" >       72 </v>
  <v type="int" >      108 </v>
  <v type="int" >       65 </v>
  <v type="int" >       36 </v>
  <v type="int" >       42 </v>
  <v type="int" >      102 </v>
  <v type="int" >       96 </v>
  <v type="int" >       89 </v>
  <v type="int" >      120 </v>
  <v type="int" >       63 </v>
  <v type="int" >       87 </v>
  <v type="int" >       97 </v>
  <v type="int" >       37 </v>
  <v type="int" >       43 </v>
  <v type="int" >      115 </v>
  <v type="int" >       67 </v>
  <v type="int" >      114 </v>
  <v type="int" >       41 </v>
  <v type="int" >       35 </v>
  <v type="int" >      113 </v>
  <v type="int" >       48 </v>
  <v type="int" >       38 </v>
  <v type="int" >       44 </v>
  <v type="int" >       40 </v>
  <v type="int" >       34 </v>
  <v type="int" >       92 </v>
  <v type="int" >       94 </v>
  <v type="int" >       95 </v>
  <v type="int" >       90 </v>
  <v type="int" >       47 </v>
  <v type="int" >       49 </v>
  <v type="int" >       39 </v>
  <v type="int" >       33 </v>
  <v type="int" >       88 </v>
  <v type="int" >       98 </v>
  <v type="int" >       46 </v>
  <v type="int" >       50 </v>
  <v type="int" >       30 </v>
  <v type="int" >       31 </v>
  <v type="int" >       91 </v>
  <v type="int" >       93 </v>
  <v type="int" >       45 </v>
  <v type="int" >        6 </v>
  <v type="int" >        5 </v>
  <v type="int" >        4 </v>
  <v type="int" >       32 </v>
 </varray>
 <kpoints>
  <generation param="listgenerated">
   <i name="divisions" type="int">      20 </i>
   <v>       0.00000000       0.00000000       0.00000000 </v>
   <v>       0.50000000       0.00000000       0.00000000 </v>
   <v>       0.33333333       0.33333333       0.00000000 </v>
   <v>       0.00000000       0.00000000       0.00000000 </v>
  </generation>
  <varray name="kpointlist" >
   <v>       0.00000000       0.00000000       0.00000000 </v>
   <v>       0.02631579       0.00000000       0.00000000 </v>
   <v>       0.05263158       0.00000000       0.00000000 </v>
   <v>       0.07894737       0.00000000       0.00000000 </v>
   <v>       0.10526316       0.00000000       0.00000000 </v>
   <v>       0.13157895       0.00000000       0.00000000 </v>
   <v>       0.15789474       0.00000000       0.00000000 </v>
   <v>       0.18421053       0.00000000       0.00000000 </v>
   <v>       0.21052632       0.00000000       0.00000000 </v>
   <v>       0.23684211       0.00000000       0.00000000 </v>
   <v>       0.26315789       0.00000000       0.00000000 </v>
   <v>       0.28947368       0.00000000       0.00000000 </v>
   <v>       0.31578947       0.00000000       0.00000000 </v>
   <v>       0.34210526       0.00000000       0.00000000 </v>
   <v>       0.36842105       0.00000000       0.00000000 </v>
   <v>       0.39473684       0.00000000       0.00000000 </v>
   <v>       0.42105263       0.00000000       0.00000000 </v>
   <v>       0.44736842       0.00000000       0.00000000 </v>
   <v>       0.47368421       0.00000000       0.00000000 </v>
   <v>       0.50000000       0.00000000       0.00000000 </v>
   <v>       0.50000000       0.00000000       0.00000000 </v>
   <v>       0.49122807       0.01754386       0.00000000 </v>
   <v>       0.48245614       0.03508772       0.00000000 </v>
   <v>       0.47368421       0.05263158       0.00000000 </v>
   <v>       0.46491228       0.07017544       0.00000000 </v>
   <v>       0.45614035       0.08771930       0.00000000 </v>
   <v>       0.44736842       0.10526316       0.00000000 </v>
   <v>       0.43859649       0.12280702       0.00000000 </v>
   <v>       0.42982456       0.14035088       0.00000000 </v>
   <v>       0.42105263       0.15789474       0.00000000 </v>
   <v>       0.41228070       0.17543860       0.00000000 </v>
   <v>       0.40350877       0.19298246       0.00000000 </v>
   <v>       0.39473684       0.21052632       0.00000000 </v>
   <v>       0.38596491       0.22807018       0.00000000 </v>
   <v>       0.37719298       0.24561404       0.00000000 </v>
   <v>       0.36842105       0.26315789       0.00000000 </v>
   <v>       0.35964912       0.28070175       0.00000000 </v>
   <v>       0.35087719       0.29824561       0.00000000 </v>
   <v>       0.34210526       0.31578947       0.00000000 </v>
   <v>       0.33333333       0.33333333       0.00000000 </v>
   <v>       0.33333333       0.33333333       0.00000000 </v>
   <v>       0.31578947       0.31578947       0.00000000 </v>
   <v>       0.29824561       0.29824561       0.00000000 </v>
   <v>       0.28070175       0.28070175       0.00000000 </v>
   <v>       0.26315789       0.26315789       0.00000000 </v>
   <v>       0.24561404       0.24561404       0.00000000 </v>
   <v>       0.22807018       0.22807018       0.00000000 </v>
   <v>       0.21052632       0.21052632       0.00000000 </v>
   <v>       0.19298246       0.19298246       0.00000000 </v>
   <v>       0.17543860       0.17543860       0.00000000 </v>
   <v>       0.15789474       0.15789474       0.00000000 </v>
   <v>       0.14035088       0.14035088       0.00000000 </v>
   <v>       0.12280702       0.12280702       0.00000000 </v>
   <v>       0.10526316       0.10526316       0.00000000 </v>
   <v>       0.08771930       0.08771930       0.00000000 </v>
   <v>       0.07017544       0.07017544       0.00000000 </v>
   <v>       0.05263158       0.05263158       0.00000000 </v>
   <v>       0.03508772       0.03508772       0.00000000 </v>
   <v>       0.01754386       0.01754386       0.00000000 </v>
   <v>       0.00000000       0.00000000       0.00000000 </v>
  </varray>
  <varray name="weights" >
   <v>       0.01666667 </v>
   <v>       0.01666667 </v>
   <v>       0.01666667 </v>
   <v>       0.01666667 </v>
   <v>       0.01666667 </v>
   <v>       0.01666667 </v>
   <v>       0.01666667 </v>
   <v>       0.01666667 </v>
   <v>       0.01666667 </v>
   <v>       0.01666667 </v>
   <v>       0.01666667 </v>
   <v>       0.01666667 </v>
   <v>       0.01666667 </v>
   <v>       0.01666667 </v>
   <v>       0.01666667 </v>
   <v>       0.01666667 </v>
   <v>       0.01666667 </v>
   <v>       0.01666667 </v>
   <v>       0.01666667 </v>
   <v>       0.01666667 </v>
   <v>       0.01666667 </v>
   <v>       0.01666667 </v>
   <v>       0.01666667 </v>
   <v>       0.01666667 </v>
   <v>       0.01666667 </v>
   <v>       0.01666667 </v>
   <v>       0.01666667 </v>
   <v>       0.01666667 </v>
   <v>       0.01666667 </v>
   <v>       0.01666667 </v>
   <v>       0.01666667 </v>
   <v>       0.01666667 </v>
   <v>       0.01666667 </v>
   <v>       0.01666667 </v>
   <v>       0.01666667 </v>
   <v>       0.01666667 </v>
   <v>       0.01666667 </v>
   <v>       0.01666667 </v>
   <v>       0.01666667 </v>
   <v>       0.01666667 </v>
   <v>       0.01666667 </v>
   <v>       0.01666667 </v>
   <v>       0.01666667 </v>
   <v>       0.01666667 </v>
   <v>       0.01666667 </v>
   <v>       0.01666667 </v>
   <v>       0.01666667 </v>
   <v>       0.01666667 </v>
   <v>       0.01666667 </v>
   <v>       0.01666667 </v>
   <v>       0.01666667 </v>
   <v>       0.01666667 </v>
   <v>       0.01666667 </v>
   <v>       0.01666667 </v>
   <v>       0.01666667 </v>
   <v>       0.01666667 </v>
   <v>       0.01666667 </v>
   <v>       0.01666667 </v>
   <v>       0.01666667 </v>
   <v>       0.01666667 </v>
  </varray>
 </kpoints>
 <parameters>
  <separator name="general" >
   <i type="string" name="SYSTEM">Simulation for cell shape cell volume r</i>
   <i type="logical" name="LCOMPAT"> F  </i>
  </separator>
  <separator name="electronic" >
   <i type="string" name="PREC">high</i>
   <i name="ENMAX">    500.00000000</i>
   <i name="ENAUG">    644.87300000</i>
   <i name="EDIFF">      0.00001000</i>
   <i type="int" name="IALGO">    38</i>
   <i type="int" name="IWAVPR">    10</i>
   <i type="int" name="NBANDS">   240</i>
   <i name="NELECT">    342.00000000</i>
   <i type="int" name="TURBO">     0</i>
   <i type="int" name="IRESTART">     0</i>
   <i type="int" name="NREBOOT">     0</i>
   <i type="int" name="NMIN">     0</i>
   <i name="EREF">      0.00000000</i>
   <separator name="electronic smearing" >
    <i type="int" name="ISMEAR">     0</i>
    <i name="SIGMA">      0.01000000</i>
    <i name="KSPACING">      0.50000000</i>
    <i type="logical" name="KGAMMA"> T  </i>
   </separator>
   <separator name="electronic projectors" >
    <i type="logical" name="LREAL"> T  </i>
    <v name="ROPT">     -0.00040000     -0.00040000     -0.00040000</v>
    <i type="int" name="LMAXPAW">  -100</i>
    <i type="int" name="LMAXMIX">     2</i>
    <i type="logical" name="NLSPLINE"> F  </i>
   </separator>
   <separator name="electronic startup" >
    <i type="int" name="ISTART">     1</i>
    <i type="int" name="ICHARG">    11</i>
    <i type="int" name="INIWAV">     1</i>
   </separator>
   <separator name="electronic spin" >
    <i type="int" name="ISPIN">     1</i>
    <i type="logical" name="LNONCOLLINEAR"> F  </i>
    <v name="MAGMOM">      1.00000000      1.00000000      1.00000000      1.00000000      1.00000000      1.00000000      1.00000000      1.00000000      1.00000000      1.00000000      1.00000000      1.00000000      1.00000000      1.00000000      1.00000000      1.00000000      1.00000000      1.00000000      1.00000000      1.00000000
      1.00000000      1.00000000      1.00000000      1.00000000      1.00000000      1.00000000      1.00000000      1.00000000      1.00000000      1.00000000      1.00000000      1.00000000      1.00000000      1.00000000      1.00000000      1.00000000      1.00000000      1.00000000      1.00000000      1.00000000
      1.00000000      1.00000000      1.00000000      1.00000000      1.00000000      1.00000000      1.00000000      1.00000000      1.00000000      1.00000000      1.00000000      1.00000000      1.00000000      1.00000000      1.00000000      1.00000000      1.00000000      1.00000000      1.00000000      1.00000000
      1.00000000      1.00000000      1.00000000      1.00000000      1.00000000      1.00000000      1.00000000      1.00000000      1.00000000      1.00000000      1.00000000      1.00000000      1.00000000      1.00000000      1.00000000      1.00000000      1.00000000      1.00000000      1.00000000      1.00000000
      1.00000000      1.00000000      1.00000000      1.00000000      1.00000000      1.00000000      1.00000000      1.00000000      1.00000000      1.00000000      1.00000000      1.00000000      1.00000000      1.00000000      1.00000000      1.00000000      1.00000000      1.00000000      1.00000000      1.00000000
      1.00000000      1.00000000      1.00000000      1.00000000      1.00000000      1.00000000      1.00000000      1.00000000      1.00000000      1.00000000      1.00000000      1.00000000      1.00000000      1.00000000      1.00000000      1.00000000      1.00000000      1.00000000      1.00000000      1.00000000
</v>
    <i name="NUPDOWN">     -1.00000000</i>
    <i type="logical" name="LSORBIT"> F  </i>
    <v name="SAXIS">      0.00000000      0.00000000      1.00000000</v>
    <i type="logical" name="LSPIRAL"> F  </i>
    <v name="QSPIRAL">      0.00000000      0.00000000      0.00000000</v>
    <i type="logical" name="LZEROZ"> F  </i>
   </separator>
   <separator name="electronic exchange-correlation" >
    <i type="logical" name="LASPH"> F  </i>
    <i type="logical" name="LMETAGGA"> F  </i>
   </separator>
   <separator name="electronic convergence" >
    <i type="int" name="NELM">   200</i>
    <i type="int" name="NELMDL">     0</i>
    <i type="int" name="NELMIN">     2</i>
    <i name="ENINI">    500.00000000</i>
    <separator name="electronic convergence detail" >
     <i type="logical" name="LDIAG"> T  </i>
     <i type="logical" name="LSUBROT"> F  </i>
     <i name="WEIMIN">      0.00000000</i>
     <i name="EBREAK">      0.00000001</i>
     <i name="DEPER">      0.30000000</i>
     <i type="int" name="NRMM">     4</i>
     <i name="TIME">      0.40000000</i>
    </separator>
   </separator>
   <separator name="electronic mixer" >
    <i name="AMIX">      0.40000000</i>
    <i name="BMIX">      1.00000000</i>
    <i name="AMIN">      0.10000000</i>
    <i name="AMIX_MAG">      1.60000000</i>
    <i name="BMIX_MAG">      1.00000000</i>
    <separator name="electronic mixer details" >
     <i type="int" name="IMIX">     4</i>
     <i type="logical" name="MIXFIRST"> F  </i>
     <i type="int" name="MAXMIX">   -45</i>
     <i name="WC">    100.00000000</i>
     <i type="int" name="INIMIX">     1</i>
     <i type="int" name="MIXPRE">     1</i>
     <i type="int" name="MREMOVE">     5</i>
    </separator>
   </separator>
   <separator name="electronic dipolcorrection" >
    <i type="logical" name="LDIPOL"> F  </i>
    <i type="logical" name="LMONO"> F  </i>
    <i type="int" name="IDIPOL">     0</i>
    <i name="EPSILON">      1.00000000</i>
    <v name="DIPOL">   -100.00000000   -100.00000000   -100.00000000</v>
    <i name="EFIELD">      0.00000000</i>
   </separator>
  </separator>
  <separator name="grids" >
   <i type="int" name="NGX">   216</i>
   <i type="int" name="NGY">   216</i>
   <i type="int" name="NGZ">   150</i>
   <i type="int" name="NGXF">   336</i>
   <i type="int" name="NGYF">   336</i>
   <i type="int" name="NGZF">   224</i>
   <i type="logical" name="ADDGRID"> F  </i>
  </separator>
  <separator name="ionic" >
   <i type="int" name="NSW">     0</i>
   <i type="int" name="IBRION">    -1</i>
   <i type="int" name="MDALGO">     0</i>
   <i type="int" name="ISIF">     2</i>
   <i name="PSTRESS">      0.00000000</i>
   <i name="EDIFFG">     -0.01000000</i>
   <i type="int" name="NFREE">     0</i>
   <i name="POTIM">      0.30000000</i>
   <i name="SMASS">     -3.00000000</i>
   <i name="SCALEE">      1.00000000</i>
  </separator>
  <separator name="ionic md" >
   <i name="TEBEG">      0.00010000</i>
   <i name="TEEND">      0.00010000</i>
   <i type="int" name="NBLOCK">     1</i>
   <i type="int" name="KBLOCK">     1</i>
   <i type="int" name="NPACO">   256</i>
   <i name="APACO">     16.00000000</i>
  </separator>
  <separator name="symmetry" >
   <i type="int" name="ISYM">     2</i>
   <i name="SYMPREC">      0.00001000</i>
  </separator>
  <separator name="dos" >
   <i type="int" name="LORBIT">     0</i>
   <v name="RWIGS">     -1.00000000     -1.00000000     -1.00000000</v>
   <i type="int" name="NEDOS">   301</i>
   <i name="EMIN">     10.00000000</i>
   <i name="EMAX">    -10.00000000</i>
   <i name="EFERMI">      0.00000000</i>
  </separator>
  <separator name="writing" >
   <i type="int" name="NWRITE">     0</i>
   <i type="logical" name="LWAVE"> F  </i>
   <i type="logical" name="LDOWNSAMPLE"> F  </i>
   <i type="logical" name="LCHARG"> F  </i>
   <i type="logical" name="LPARD"> F  </i>
   <i type="logical" name="LVTOT"> F  </i>
   <i type="logical" name="LVHAR"> F  </i>
   <i type="logical" name="LELF"> F  </i>
   <i type="logical" name="LOPTICS"> F  </i>
   <v name="STM">      0.00000000      0.00000000      0.00000000      0.00000000      0.00000000      0.00000000      0.00000000</v>
  </separator>
  <separator name="performance" >
   <i type="int" name="NPAR">    16</i>
   <i type="int" name="NSIM">     4</i>
   <i type="int" name="NBLK">    -1</i>
   <i type="logical" name="LPLANE"> T  </i>
   <i type="logical" name="LSCALAPACK"> T  </i>
   <i type="logical" name="LSCAAWARE"> F  </i>
   <i type="logical" name="LSCALU"> F  </i>
   <i type="logical" name="LASYNC"> F  </i>
   <i type="logical" name="LORBITALREAL"> F  </i>
  </separator>
  <separator name="miscellaneous" >
   <i type="int" name="IDIOT">     3</i>
   <i type="int" name="ISPECIAL">     0</i>
   <i type="logical" name="LMUSIC"> F  </i>
   <v name="POMASS">     14.00100000     12.01100000      1.00000000</v>
   <v name="DARWINR">      0.00000000      0.00000000      0.00000000</v>
   <v name="DARWINV">      1.00000000      1.00000000      1.00000000</v>
   <i type="logical" name="LCORR"> T  </i>
  </separator>
  <i type="logical" name="GGA_COMPAT"> T  </i>
  <i type="logical" name="LBERRY"> F  </i>
  <i type="int" name="ICORELEVEL">     0</i>
  <i type="logical" name="LDAU"> F  </i>
  <i type="int" name="I_CONSTRAINED_M">     0</i>
  <separator name="electronic exchange-correlation" >
   <i type="string" name="GGA">PE</i>
   <i type="int" name="VOSKOWN">     0</i>
   <i type="logical" name="LHFCALC"> F  </i>
   <i type="string" name="PRECFOCK"></i>
   <i type="logical" name="LSYMGRAD"> F  </i>
   <i type="logical" name="LHFONE"> F  </i>
   <i type="logical" name="LRHFCALC"> F  </i>
   <i type="logical" name="LTHOMAS"> F  </i>
   <i type="logical" name="LMODELHF"> F  </i>
   <i name="ENCUT4O">     -1.00000000</i>
   <i type="int" name="EXXOEP">     0</i>
   <i type="int" name="FOURORBIT">     0</i>
   <i name="AEXX">      0.00000000</i>
   <i name="HFALPHA">      0.00000000</i>
   <i name="MCALPHA">      0.00000000</i>
   <i name="ALDAX">      1.00000000</i>
   <i name="AGGAX">      1.00000000</i>
   <i name="ALDAC">      1.00000000</i>
   <i name="AGGAC">      1.00000000</i>
   <i type="int" name="NKREDX">     1</i>
   <i type="int" name="NKREDY">     1</i>
   <i type="int" name="NKREDZ">     1</i>
   <i type="logical" name="SHIFTRED"> F  </i>
   <i type="logical" name="ODDONLY"> F  </i>
   <i type="logical" name="EVENONLY"> F  </i>
   <i type="int" name="LMAXFOCK">     0</i>
   <i type="int" name="NMAXFOCKAE">     0</i>
   <i type="logical" name="LFOCKAEDFT"> F  </i>
   <i name="HFSCREEN">      0.00000000</i>
   <i name="HFSCREENC">      0.00000000</i>
   <i type="int" name="NBANDSGWLOW">     0</i>
  </separator>
  <separator name="vdW DFT" >
   <i type="logical" name="LUSE_VDW"> F  </i>
   <i name="Zab_VDW">     -0.84910000</i>
   <i name="PARAM1">      0.12340000</i>
   <i name="PARAM2">      1.00000000</i>
   <i name="PARAM3">      0.00000000</i>
  </separator>
  <separator name="model GW" >
   <i type="int" name="MODEL_GW">     0</i>
   <i name="MODEL_EPS0">     75.25185026</i>
   <i name="MODEL_ALPHA">      1.00000000</i>
  </separator>
  <separator name="linear response parameters" >
   <i type="logical" name="LEPSILON"> F  </i>
   <i type="logical" name="LRPA"> F  </i>
   <i type="logical" name="LNABLA"> F  </i>
   <i type="logical" name="LVEL"> F  </i>
   <i type="int" name="KINTER">     0</i>
   <i name="CSHIFT">      0.10000000</i>
   <i name="OMEGAMAX">     -1.00000000</i>
   <i name="DEG_THRESHOLD">      0.00200000</i>
   <i name="RTIME">     -0.10000000</i>
   <i name="WPLASMAI">      0.00000000</i>
   <v name="DFIELD">      0.00000000      0.00000000      0.00000000</v>
   <v name="WPLASMA">      0.00000000      0.00000000      0.00000000      0.00000000      0.00000000      0.00000000      0.00000000      0.00000000      0.00000000</v>
  </separator>
  <separator name="orbital magnetization" >
   <i type="logical" name="NUCIND"> F  </i>
   <v name="MAGPOS">      0.00000000      0.00000000      0.00000000</v>
   <i type="logical" name="LNICSALL"> T  </i>
   <i type="logical" name="ORBITALMAG"> F  </i>
   <i type="logical" name="LMAGBLOCH"> F  </i>
   <i type="logical" name="LCHIMAG"> F  </i>
   <i type="logical" name="LGAUGE"> T  </i>
   <i type="int" name="MAGATOM">     0</i>
   <v name="MAGDIPOL">      0.00000000      0.00000000      0.00000000</v>
   <v name="AVECCONST">      0.00000000      0.00000000      0.00000000</v>
  </separator>
  <separator name="response functions" >
   <i type="logical" name="LADDER"> F  </i>
   <i type="logical" name="LRPAFORCE"> F  </i>
   <i type="logical" name="LFXC"> F  </i>
   <i type="logical" name="LHARTREE"> T  </i>
   <i type="int" name="IBSE">     0</i>
   <v type="int" name="KPOINT">    -1     0     0     0</v>
   <i type="logical" name="LTCTE"> F  </i>
   <i type="logical" name="LTETE"> F  </i>
   <i type="logical" name="LTRIPLET"> F  </i>
   <i type="logical" name="LFXCEPS"> F  </i>
   <i type="logical" name="LFXHEG"> F  </i>
   <i type="int" name="NATURALO">     2</i>
   <i type="logical" name="L2ORDER"> F  </i>
   <i type="logical" name="LMP2LT"> F  </i>
   <i type="logical" name="LUSEW"> F  </i>
   <i name="ENCUTGW">     -2.00000000</i>
   <i name="ENCUTGWSOFT">     -2.00000000</i>
   <i name="ENCUTLF">     -1.00000000</i>
   <i type="int" name="LMAXMP2">    -1</i>
   <i name="SCISSOR">      0.00000000</i>
   <i type="int" name="NOMEGA">     0</i>
   <i type="int" name="NOMEGAR">     0</i>
   <i type="int" name="NBANDSGW">    -1</i>
   <i type="int" name="NBANDSO">    -1</i>
   <i type="int" name="NBANDSV">    -1</i>
   <i type="int" name="NELM">   200</i>
   <i type="int" name="NELMHF">     1</i>
   <i type="int" name="DIM">     3</i>
   <i type="int" name="ANTIRES">     0</i>
   <i name="OMEGAMAX">    -30.00000000</i>
   <i name="OMEGAMIN">    -30.00000000</i>
   <i name="OMEGATL">   -200.00000000</i>
   <i type="int" name="OMEGAGRID">   140</i>
   <i name="CSHIFT">     -0.10000000</i>
   <i type="logical" name="SELFENERGY"> F  </i>
   <i type="logical" name="LSPECTRAL"> F  </i>
   <i type="logical" name="LSPECTRALGW"> F  </i>
   <i type="logical" name="LSINGLES"> F  </i>
   <i type="logical" name="LFERMIGW"> F  </i>
   <i type="logical" name="ODDONLYGW"> F  </i>
   <i type="logical" name="EVENONLYGW"> F  </i>
   <i type="int" name="NKREDLFX">     1</i>
   <i type="int" name="NKREDLFY">     1</i>
   <i type="int" name="NKREDLFZ">     1</i>
   <i type="int" name="MAXMEM">  2800</i>
   <i type="int" name="TELESCOPE">     0</i>
   <i type="int" name="TAUPAR">     1</i>
   <i type="int" name="OMEGAPAR">    -1</i>
   <i name="LAMBDA">      1.00000000</i>
  </separator>
  <separator name="External order field" >
   <i name="OFIELD_KAPPA">      0.00000000</i>
   <v name="OFIELD_K">      0.00000000      0.00000000      0.00000000</v>
   <i name="OFIELD_Q6_NEAR">      0.00000000</i>
   <i name="OFIELD_Q6_FAR">      0.00000000</i>
   <i name="OFIELD_A">      0.00000000</i>
  </separator>
  <separator name="solvation model" >
   <i type="logical" name="LSOL"> F  </i>
  </separator>
 </parameters>
 <atominfo>
  <atoms>     120 </atoms>
  <types>       3 </types>
  <array name="atoms" >
   <dimension dim="1">ion</dimension>
   <field type="string">element</field>
   <field type="int">atomtype</field>
   <set>
    <rc><c>N </c><c>   1</c></rc>
    <rc><c>N </c><c>   1</c></rc>
    <rc><c>N </c><c>   1</c></rc>
    <rc><c>N </c><c>   1</c></rc>
    <rc><c>N </c><c>   1</c></rc>
    <rc><c>N </c><c>   1</c></rc>
    <rc><c>C </c><c>   2</c></rc>
    <rc><c>C </c><c>   2</c></rc>
    <rc><c>C </c><c>   2</c></rc>
    <rc><c>C </c><c>   2</c></rc>
    <rc><c>C </c><c>   2</c></rc>
    <rc><c>C </c><c>   2</c></rc>
    <rc><c>C </c><c>   2</c></rc>
    <rc><c>C </c><c>   2</c></rc>
    <rc><c>C </c><c>   2</c></rc>
    <rc><c>C </c><c>   2</c></rc>
    <rc><c>C </c><c>   2</c></rc>
    <rc><c>C </c><c>   2</c></rc>
    <rc><c>C </c><c>   2</c></rc>
    <rc><c>C </c><c>   2</c></rc>
    <rc><c>C </c><c>   2</c></rc>
    <rc><c>C </c><c>   2</c></rc>
    <rc><c>C </c><c>   2</c></rc>
    <rc><c>C </c><c>   2</c></rc>
    <rc><c>C </c><c>   2</c></rc>
    <rc><c>C </c><c>   2</c></rc>
    <rc><c>C </c><c>   2</c></rc>
    <rc><c>C </c><c>   2</c></rc>
    <rc><c>C </c><c>   2</c></rc>
    <rc><c>C </c><c>   2</c></rc>
    <rc><c>C </c><c>   2</c></rc>
    <rc><c>C </c><c>   2</c></rc>
    <rc><c>C </c><c>   2</c></rc>
    <rc><c>C </c><c>   2</c></rc>
    <rc><c>C </c><c>   2</c></rc>
    <rc><c>C </c><c>   2</c></rc>
    <rc><c>C </c><c>   2</c></rc>
    <rc><c>C </c><c>   2</c></rc>
    <rc><c>C </c><c>   2</c></rc>
    <rc><c>C </c><c>   2</c></rc>
    <rc><c>C </c><c>   2</c></rc>
    <rc><c>C </c><c>   2</c></rc>
    <rc><c>C </c><c>   2</c></rc>
    <rc><c>C </c><c>   2</c></rc>
    <rc><c>C </c><c>   2</c></rc>
    <rc><c>C </c><c>   2</c></rc>
    <rc><c>C </c><c>   2</c></rc>
    <rc><c>C </c><c>   2</c></rc>
    <rc><c>C </c><c>   2</c></rc>
    <rc><c>C </c><c>   2</c></rc>
    <rc><c>C </c><c>   2</c></rc>
    <rc><c>C </c><c>   2</c></rc>
    <rc><c>C </c><c>   2</c></rc>
    <rc><c>C </c><c>   2</c></rc>
    <rc><c>C </c><c>   2</c></rc>
    <rc><c>C </c><c>   2</c></rc>
    <rc><c>C </c><c>   2</c></rc>
    <rc><c>C </c><c>   2</c></rc>
    <rc><c>C </c><c>   2</c></rc>
    <rc><c>C </c><c>   2</c></rc>
    <rc><c>C </c><c>   2</c></rc>
    <rc><c>C </c><c>   2</c></rc>
    <rc><c>C </c><c>   2</c></rc>
    <rc><c>C </c><c>   2</c></rc>
    <rc><c>C </c><c>   2</c></rc>
    <rc><c>C </c><c>   2</c></rc>
    <rc><c>C </c><c>   2</c></rc>
    <rc><c>C </c><c>   2</c></rc>
    <rc><c>C </c><c>   2</c></rc>
    <rc><c>C </c><c>   2</c></rc>
    <rc><c>C </c><c>   2</c></rc>
    <rc><c>C </c><c>   2</c></rc>
    <rc><c>H </c><c>   3</c></rc>
    <rc><c>H </c><c>   3</c></rc>
    <rc><c>H </c><c>   3</c></rc>
    <rc><c>H </c><c>   3</c></rc>
    <rc><c>H </c><c>   3</c></rc>
    <rc><c>H </c><c>   3</c></rc>
    <rc><c>H </c><c>   3</c></rc>
    <rc><c>H </c><c>   3</c></rc>
    <rc><c>H </c><c>   3</c></rc>
    <rc><c>H </c><c>   3</c></rc>
    <rc><c>H </c><c>   3</c></rc>
    <rc><c>H </c><c>   3</c></rc>
    <rc><c>H </c><c>   3</c></rc>
    <rc><c>H </c><c>   3</c></rc>
    <rc><c>H </c><c>   3</c></rc>
    <rc><c>H </c><c>   3</c></rc>
    <rc><c>H </c><c>   3</c></rc>
    <rc><c>H </c><c>   3</c></rc>
    <rc><c>H </c><c>   3</c></rc>
    <rc><c>H </c><c>   3</c></rc>
    <rc><c>H </c><c>   3</c></rc>
    <rc><c>H </c><c>   3</c></rc>
    <rc><c>H </c><c>   3</c></rc>
    <rc><c>H </c><c>   3</c></rc>
    <rc><c>H </c><c>   3</c></rc>
    <rc><c>H </c><c>   3</c></rc>
    <rc><c>H </c><c>   3</c></rc>
    <rc><c>H </c><c>   3</c></rc>
    <rc><c>H </c><c>   3</c></rc>
    <rc><c>H </c><c>   3</c></rc>
    <rc><c>H </c><c>   3</c></rc>
    <rc><c>H </c><c>   3</c></rc>
    <rc><c>H </c><c>   3</c></rc>
    <rc><c>H </c><c>   3</c></rc>
    <rc><c>H </c><c>   3</c></rc>
    <rc><c>H </c><c>   3</c></rc>
    <rc><c>H </c><c>   3</c></rc>
    <rc><c>H </c><c>   3</c></rc>
    <rc><c>H </c><c>   3</c></rc>
    <rc><c>H </c><c>   3</c></rc>
    <rc><c>H </c><c>   3</c></rc>
    <rc><c>H </c><c>   3</c></rc>
    <rc><c>H </c><c>   3</c></rc>
    <rc><c>H </c><c>   3</c></rc>
    <rc><c>H </c><c>   3</c></rc>
    <rc><c>H </c><c>   3</c></rc>
    <rc><c>H </c><c>   3</c></rc>
    <rc><c>H </c><c>   3</c></rc>
   </set>
  </array>
  <array name="atomtypes" >
   <dimension dim="1">type</dimension>
   <field type="int">atomspertype</field>
   <field type="string">element</field>
   <field>mass</field>
   <field>valence</field>
   <field type="string">pseudopotential</field>
   <set>
    <rc><c>   6</c><c>N </c><c>     14.00100000</c><c>      5.00000000</c><c>  PAW_PBE N 08Apr2002                   </c></rc>
    <rc><c>  66</c><c>C </c><c>     12.01100000</c><c>      4.00000000</c><c>  PAW_PBE C 08Apr2002                   </c></rc>
    <rc><c>  48</c><c>H </c><c>      1.00000000</c><c>      1.00000000</c><c>  PAW_PBE H 15Jun2001                   </c></rc>
   </set>
  </array>
 </atominfo>
 <structure name="initialpos" >
  <crystal>
   <varray name="basis" >
    <v>      29.47767834      -0.00000002       0.00000000 </v>
    <v>     -14.73883915      25.52841829       0.00000000 </v>
    <v>       0.00000000       0.00000000      20.00000000 </v>
   </varray>
   <i name="volume">  15050.37005263 </i>
   <varray name="rec_basis" >
    <v>       0.03392397       0.01958602       0.00000000 </v>
    <v>       0.00000000       0.03917203       0.00000000 </v>
    <v>       0.00000000       0.00000000       0.05000000 </v>
   </varray>
  </crystal>
  <varray name="positions" >
   <v>       0.38716449       0.69365934       0.49543121 </v>
   <v>       0.30649485       0.61283551       0.49543121 </v>
   <v>       0.30634066       0.69350515       0.49543121 </v>
   <v>       0.61282464       0.30648469       0.49526956 </v>
   <v>       0.69366005       0.38717536       0.49526956 </v>
   <v>       0.69351531       0.30633995       0.49526956 </v>
   <v>       0.02774144       0.52828467       0.56584971 </v>
   <v>       0.02720667       0.49529154       0.45418929 </v>
   <v>       0.35900665       0.71815613       0.49556545 </v>
   <v>       0.35914949       0.64099335       0.49556545 </v>
   <v>       0.28184387       0.64085051       0.49556545 </v>
   <v>       0.38819543       0.61213066       0.49726038 </v>
   <v>       0.44297418       0.63885590       0.49071748 </v>
   <v>       0.47031389       0.61173581       0.49406982 </v>
   <v>       0.44398549       0.55735690       0.50513593 </v>
   <v>       0.38906319       0.53075934       0.51087907 </v>
   <v>       0.36149739       0.55756771       0.50667570 </v>
   <v>       0.38786934       0.77606477       0.49726038 </v>
   <v>       0.44243229       0.80392967       0.50667570 </v>
   <v>       0.46924066       0.85830385       0.51087907 </v>
   <v>       0.44264310       0.88662859       0.50513593 </v>
   <v>       0.38826419       0.85857808       0.49406982 </v>
   <v>       0.36114410       0.80411828       0.49071748 </v>
   <v>       0.22393523       0.61180457       0.49726038 </v>
   <v>       0.19607033       0.63850261       0.50667570 </v>
   <v>       0.14169615       0.61093681       0.51087907 </v>
   <v>       0.11337141       0.55601451       0.50513593 </v>
   <v>       0.14142192       0.52968611       0.49406982 </v>
   <v>       0.19588172       0.55702582       0.49071748 </v>
   <v>       0.64085774       0.28183839       0.49539979 </v>
   <v>       0.64098066       0.35914226       0.49539979 </v>
   <v>       0.71816161       0.35901934       0.49539979 </v>
   <v>       0.61214674       0.38822456       0.49711483 </v>
   <v>       0.55758463       0.36154968       0.50651661 </v>
   <v>       0.53079923       0.38913525       0.51079730 </v>
   <v>       0.55741432       0.44406146       0.50513361 </v>
   <v>       0.61180114       0.47037950       0.49412093 </v>
   <v>       0.63889561       0.44301585       0.49068739 </v>
   <v>       0.61177544       0.22392218       0.49711483 </v>
   <v>       0.55698415       0.19587976       0.49068739 </v>
   <v>       0.52962050       0.14142163       0.49412093 </v>
   <v>       0.55593854       0.11335286       0.50513361 </v>
   <v>       0.61086475       0.14166399       0.51079730 </v>
   <v>       0.63845032       0.19603495       0.50651661 </v>
   <v>       0.77607782       0.38785326       0.49711483 </v>
   <v>       0.80412024       0.36110439       0.49068739 </v>
   <v>       0.85857837       0.38819886       0.49412093 </v>
   <v>       0.88664714       0.44258568       0.50513361 </v>
   <v>       0.85833601       0.46920077       0.51079730 </v>
   <v>       0.80396505       0.44241537       0.50651661 </v>
   <v>       0.52896112       0.47369201       0.50909251 </v>
   <v>       0.47363178       0.52892380       0.50909116 </v>
   <v>       0.47171533       0.49945677       0.56584971 </v>
   <v>       0.49948486       0.47175372       0.56585080 </v>
   <v>       0.44257816       0.49874283       0.62822641 </v>
   <v>       0.49884631       0.44265702       0.62822892 </v>
   <v>       0.52630799       0.05526911       0.50909251 </v>
   <v>       0.47107620       0.94470797       0.50909116 </v>
   <v>       0.50054323       0.97225856       0.56584971 </v>
   <v>       0.52824628       0.02773114       0.56585080 </v>
   <v>       0.50125717       0.94383533       0.62822641 </v>
   <v>       0.55734298       0.05618929       0.62822892 </v>
   <v>       0.94473089       0.47103888       0.50909251 </v>
   <v>       0.05529203       0.52636822       0.50909116 </v>
   <v>       0.97226886       0.50051514       0.56585080 </v>
   <v>       0.05616467       0.55742184       0.62822641 </v>
   <v>       0.94381071       0.50115369       0.62822892 </v>
   <v>       0.53191775       0.50474853       0.45418427 </v>
   <v>       0.50470846       0.53191513       0.45418929 </v>
   <v>       0.49525147       0.02716922       0.45418427 </v>
   <v>       0.46808487       0.97279333       0.45418929 </v>
   <v>       0.97283078       0.46808225       0.45418427 </v>
   <v>       0.04253934       0.53126098       0.67197133 </v>
   <v>       0.04865276       0.49383975       0.41053202 </v>
   <v>       0.51159075       0.87955910       0.51834834 </v>
   <v>       0.46315551       0.78210965       0.51107352 </v>
   <v>       0.36711030       0.88002526       0.48935090 </v>
   <v>       0.31884640       0.78243010       0.48345672 </v>
   <v>       0.21789035       0.68104586       0.51107352 </v>
   <v>       0.12044090       0.63203166       0.51834834 </v>
   <v>       0.21756990       0.53641630       0.48345672 </v>
   <v>       0.11997474       0.48708504       0.48935090 </v>
   <v>       0.31895414       0.53684449       0.51107352 </v>
   <v>       0.36796834       0.48840925       0.51834834 </v>
   <v>       0.51291496       0.63288970       0.48935090 </v>
   <v>       0.46358370       0.68115360       0.48345672 </v>
   <v>       0.48700923       0.11998422       0.48951947 </v>
   <v>       0.53637953       0.21757306       0.48345812 </v>
   <v>       0.63195332       0.12040513       0.51827798 </v>
   <v>       0.68099707       0.21783539       0.51086263 </v>
   <v>       0.78242694       0.31880647       0.48345812 </v>
   <v>       0.88001578       0.36702502       0.48951947 </v>
   <v>       0.78216461       0.46316168       0.51086263 </v>
   <v>       0.87959487       0.51154819       0.51827798 </v>
   <v>       0.68119353       0.46362047       0.48345812 </v>
   <v>       0.63297498       0.51299077       0.48951947 </v>
   <v>       0.48845181       0.36804668       0.51827798 </v>
   <v>       0.53683832       0.31900293       0.51086263 </v>
   <v>       0.42614603       0.52470385       0.62423117 </v>
   <v>       0.46873902       0.51127836       0.67197133 </v>
   <v>       0.41027260       0.45906055       0.63964579 </v>
   <v>       0.52489903       0.42633172       0.62422083 </v>
   <v>       0.45920535       0.41027210       0.63963068 </v>
   <v>       0.51132268       0.46881500       0.67197428 </v>
   <v>       0.47529615       0.90144218       0.62423117 </v>
   <v>       0.48872164       0.95746066       0.67197133 </v>
   <v>       0.54093945       0.95121205       0.63964579 </v>
   <v>       0.57366828       0.09856730       0.62422083 </v>
   <v>       0.58972790       0.04893325       0.63963068 </v>
   <v>       0.53118500       0.04250768       0.67197428 </v>
   <v>       0.09855782       0.57385397       0.62423117 </v>
   <v>       0.04878795       0.58972740       0.63964579 </v>
   <v>       0.90143270       0.47510097       0.62422083 </v>
   <v>       0.95106675       0.54079465       0.63963068 </v>
   <v>       0.95749232       0.48867732       0.67197428 </v>
   <v>       0.50616025       0.55481301       0.41053202 </v>
   <v>       0.55481664       0.50622395       0.41051520 </v>
   <v>       0.44518699       0.95134724       0.41053202 </v>
   <v>       0.49377605       0.04859270       0.41051520 </v>
   <v>       0.95140730       0.44518336       0.41051520 </v>
  </varray>
 </structure>
 <calculation>
  <scstep>
   <time name="dav">  596.47  603.67</time>
   <time name="total">  596.73  603.95</time>
   <energy>
    <i name="alphaZ">     36.39545023 </i>
    <i name="ewald">  41555.40577765 </i>
    <i name="hartreedc"> -51279.35806005 </i>
    <i name="XCdc">   1158.49731670 </i>
    <i name="pawpsdc">  30718.07152139 </i>
    <i name="pawaedc"> -30772.73643718 </i>
    <i name="eentropy">     -0.00000000 </i>
    <i name="bandstr">  -4135.87931495 </i>
    <i name="atom">  11898.35356128 </i>
    <i name="e_fr_energy">   -821.25018492 </i>
    <i name="e_wo_entrp">   -821.25018492 </i>
    <i name="e_0_energy">   -821.25018492 </i>
   </energy>
  </scstep>
  <scstep>
   <time name="dav">  678.42  686.65</time>
   <time name="total">  678.43  686.65</time>
   <energy>
    <i name="e_fr_energy">   -821.66491863 </i>
    <i name="e_wo_entrp">   -821.66491863 </i>
    <i name="e_0_energy">   -821.66491863 </i>
   </energy>
  </scstep>
  <scstep>
   <time name="dav">  767.90  777.23</time>
   <time name="total">  767.90  777.23</time>
   <energy>
    <i name="e_fr_energy">   -821.67576867 </i>
    <i name="e_wo_entrp">   -821.67576867 </i>
    <i name="e_0_energy">   -821.67576867 </i>
   </energy>
  </scstep>
  <scstep>
   <time name="dav">  666.43  674.73</time>
   <time name="total">  666.43  674.74</time>
   <energy>
    <i name="e_fr_energy">   -821.67593746 </i>
    <i name="e_wo_entrp">   -821.67593746 </i>
    <i name="e_0_energy">   -821.67593746 </i>
   </energy>
  </scstep>
  <scstep>
   <time name="dav">  651.05  659.49</time>
   <time name="total">  651.05  659.49</time>
   <energy>
    <i name="alphaZ">     36.39545023 </i>
    <i name="ewald">  41555.40577765 </i>
    <i name="hartreedc"> -51279.35806005 </i>
    <i name="XCdc">   1158.49731670 </i>
    <i name="pawpsdc">  30718.07152139 </i>
    <i name="pawaedc"> -30772.73643718 </i>
    <i name="eentropy">     -0.00000000 </i>
    <i name="bandstr">  -4136.30507615 </i>
    <i name="atom">  11898.35356128 </i>
    <i name="e_fr_energy">   -821.67594612 </i>
    <i name="e_wo_entrp">   -821.67594612 </i>
    <i name="e_0_energy">   -821.67594612 </i>
   </energy>
  </scstep>
  <structure>
   <crystal>
    <varray name="basis" >
     <v>      29.47767834      -0.00000002       0.00000000 </v>
     <v>     -14.73883915      25.52841829       0.00000000 </v>
     <v>       0.00000000       0.00000000      20.00000000 </v>
    </varray>
    <i name="volume">  15050.37005263 </i>
    <varray name="rec_basis" >
     <v>       0.03392397       0.01958602       0.00000000 </v>
     <v>       0.00000000       0.03917203       0.00000000 </v>
     <v>       0.00000000       0.00000000       0.05000000 </v>
    </varray>
   </crystal>
   <varray name="positions" >
    <v>       0.38716449       0.69365934       0.49543121 </v>
    <v>       0.30649485       0.61283551       0.49543121 </v>
    <v>       0.30634066       0.69350515       0.49543121 </v>
    <v>       0.61282464       0.30648469       0.49526956 </v>
    <v>       0.69366005       0.38717536       0.49526956 </v>
    <v>       0.69351531       0.30633995       0.49526956 </v>
    <v>       0.02774144       0.52828467       0.56584971 </v>
    <v>       0.02720667       0.49529154       0.45418929 </v>
    <v>       0.35900665       0.71815613       0.49556545 </v>
    <v>       0.35914949       0.64099335       0.49556545 </v>
    <v>       0.28184387       0.64085051       0.49556545 </v>
    <v>       0.38819543       0.61213066       0.49726038 </v>
    <v>       0.44297418       0.63885590       0.49071748 </v>
    <v>       0.47031389       0.61173581       0.49406982 </v>
    <v>       0.44398549       0.55735690       0.50513593 </v>
    <v>       0.38906319       0.53075934       0.51087907 </v>
    <v>       0.36149739       0.55756771       0.50667570 </v>
    <v>       0.38786934       0.77606477       0.49726038 </v>
    <v>       0.44243229       0.80392967       0.50667570 </v>
    <v>       0.46924066       0.85830385       0.51087907 </v>
    <v>       0.44264310       0.88662859       0.50513593 </v>
    <v>       0.38826419       0.85857808       0.49406982 </v>
    <v>       0.36114410       0.80411828       0.49071748 </v>
    <v>       0.22393523       0.61180457       0.49726038 </v>
    <v>       0.19607033       0.63850261       0.50667570 </v>
    <v>       0.14169615       0.61093681       0.51087907 </v>
    <v>       0.11337141       0.55601451       0.50513593 </v>
    <v>       0.14142192       0.52968611       0.49406982 </v>
    <v>       0.19588172       0.55702582       0.49071748 </v>
    <v>       0.64085774       0.28183839       0.49539979 </v>
    <v>       0.64098066       0.35914226       0.49539979 </v>
    <v>       0.71816161       0.35901934       0.49539979 </v>
    <v>       0.61214674       0.38822456       0.49711483 </v>
    <v>       0.55758463       0.36154968       0.50651661 </v>
    <v>       0.53079923       0.38913525       0.51079730 </v>
    <v>       0.55741432       0.44406146       0.50513361 </v>
    <v>       0.61180114       0.47037950       0.49412093 </v>
    <v>       0.63889561       0.44301585       0.49068739 </v>
    <v>       0.61177544       0.22392218       0.49711483 </v>
    <v>       0.55698415       0.19587976       0.49068739 </v>
    <v>       0.52962050       0.14142163       0.49412093 </v>
    <v>       0.55593854       0.11335286       0.50513361 </v>
    <v>       0.61086475       0.14166399       0.51079730 </v>
    <v>       0.63845032       0.19603495       0.50651661 </v>
    <v>       0.77607782       0.38785326       0.49711483 </v>
    <v>       0.80412024       0.36110439       0.49068739 </v>
    <v>       0.85857837       0.38819886       0.49412093 </v>
    <v>       0.88664714       0.44258568       0.50513361 </v>
    <v>       0.85833601       0.46920077       0.51079730 </v>
    <v>       0.80396505       0.44241537       0.50651661 </v>
    <v>       0.52896112       0.47369201       0.50909251 </v>
    <v>       0.47363178       0.52892380       0.50909116 </v>
    <v>       0.47171533       0.49945677       0.56584971 </v>
    <v>       0.49948486       0.47175372       0.56585080 </v>
    <v>       0.44257816       0.49874283       0.62822641 </v>
    <v>       0.49884631       0.44265702       0.62822892 </v>
    <v>       0.52630799       0.05526911       0.50909251 </v>
    <v>       0.47107620       0.94470797       0.50909116 </v>
    <v>       0.50054323       0.97225856       0.56584971 </v>
    <v>       0.52824628       0.02773114       0.56585080 </v>
    <v>       0.50125717       0.94383533       0.62822641 </v>
    <v>       0.55734298       0.05618929       0.62822892 </v>
    <v>       0.94473089       0.47103888       0.50909251 </v>
    <v>       0.05529203       0.52636822       0.50909116 </v>
    <v>       0.97226886       0.50051514       0.56585080 </v>
    <v>       0.05616467       0.55742184       0.62822641 </v>
    <v>       0.94381071       0.50115369       0.62822892 </v>
    <v>       0.53191775       0.50474853       0.45418427 </v>
    <v>       0.50470846       0.53191513       0.45418929 </v>
    <v>       0.49525147       0.02716922       0.45418427 </v>
    <v>       0.46808487       0.97279333       0.45418929 </v>
    <v>       0.97283078       0.46808225       0.45418427 </v>
    <v>       0.04253934       0.53126098       0.67197133 </v>
    <v>       0.04865276       0.49383975       0.41053202 </v>
    <v>       0.51159075       0.87955910       0.51834834 </v>
    <v>       0.46315551       0.78210965       0.51107352 </v>
    <v>       0.36711030       0.88002526       0.48935090 </v>
    <v>       0.31884640       0.78243010       0.48345672 </v>
    <v>       0.21789035       0.68104586       0.51107352 </v>
    <v>       0.12044090       0.63203166       0.51834834 </v>
    <v>       0.21756990       0.53641630       0.48345672 </v>
    <v>       0.11997474       0.48708504       0.48935090 </v>
    <v>       0.31895414       0.53684449       0.51107352 </v>
    <v>       0.36796834       0.48840925       0.51834834 </v>
    <v>       0.51291496       0.63288970       0.48935090 </v>
    <v>       0.46358370       0.68115360       0.48345672 </v>
    <v>       0.48700923       0.11998422       0.48951947 </v>
    <v>       0.53637953       0.21757306       0.48345812 </v>
    <v>       0.63195332       0.12040513       0.51827798 </v>
    <v>       0.68099707       0.21783539       0.51086263 </v>
    <v>       0.78242694       0.31880647       0.48345812 </v>
    <v>       0.88001578       0.36702502       0.48951947 </v>
    <v>       0.78216461       0.46316168       0.51086263 </v>
    <v>       0.87959487       0.51154819       0.51827798 </v>
    <v>       0.68119353       0.46362047       0.48345812 </v>
    <v>       0.63297498       0.51299077       0.48951947 </v>
    <v>       0.48845181       0.36804668       0.51827798 </v>
    <v>       0.53683832       0.31900293       0.51086263 </v>
    <v>       0.42614603       0.52470385       0.62423117 </v>
    <v>       0.46873902       0.51127836       0.67197133 </v>
    <v>       0.41027260       0.45906055       0.63964579 </v>
    <v>       0.52489903       0.42633172       0.62422083 </v>
    <v>       0.45920535       0.41027210       0.63963068 </v>
    <v>       0.51132268       0.46881500       0.67197428 </v>
    <v>       0.47529615       0.90144218       0.62423117 </v>
    <v>       0.48872164       0.95746066       0.67197133 </v>
    <v>       0.54093945       0.95121205       0.63964579 </v>
    <v>       0.57366828       0.09856730       0.62422083 </v>
    <v>       0.58972790       0.04893325       0.63963068 </v>
    <v>       0.53118500       0.04250768       0.67197428 </v>
    <v>       0.09855782       0.57385397       0.62423117 </v>
    <v>       0.04878795       0.58972740       0.63964579 </v>
    <v>       0.90143270       0.47510097       0.62422083 </v>
    <v>       0.95106675       0.54079465       0.63963068 </v>
    <v>       0.95749232       0.48867732       0.67197428 </v>
    <v>       0.50616025       0.55481301       0.41053202 </v>
    <v>       0.55481664       0.50622395       0.41051520 </v>
    <v>       0.44518699       0.95134724       0.41053202 </v>
    <v>       0.49377605       0.04859270       0.41051520 </v>
    <v>       0.95140730       0.44518336       0.41051520 </v>
   </varray>
  </structure>
  <varray name="forces" >
   <v>       0.00542221       0.00428384       0.00437322 </v>
   <v>       0.00099881      -0.00683769       0.00437322 </v>
   <v>      -0.00642102       0.00255385       0.00437322 </v>
   <v>       0.00539060       0.00022139       0.00499429 </v>
   <v>      -0.00250358      -0.00477909       0.00499429 </v>
   <v>      -0.00288703       0.00455771       0.00499429 </v>
   <v>      -0.00421799      -0.00149588       0.00256868 </v>
   <v>       0.00255984      -0.00124026       0.00141949 </v>
   <v>       0.00319772       0.00470138      -0.00350222 </v>
   <v>       0.00247266      -0.00512000      -0.00350222 </v>
   <v>      -0.00567038       0.00041862      -0.00350222 </v>
   <v>       0.00027633      -0.00170652      -0.00058901 </v>
   <v>       0.00125626       0.00150787      -0.00195466 </v>
   <v>      -0.00119528       0.00729290      -0.00027323 </v>
   <v>       0.00105225      -0.00023461      -0.00126093 </v>
   <v>      -0.00105755      -0.00036199       0.00018143 </v>
   <v>      -0.00114742       0.00223207      -0.00181045 </v>
   <v>       0.00133973       0.00109257      -0.00058901 </v>
   <v>      -0.00135932      -0.00210973      -0.00181045 </v>
   <v>       0.00084227      -0.00073486       0.00018143 </v>
   <v>      -0.00032295       0.00102858      -0.00126093 </v>
   <v>      -0.00571820      -0.00468159      -0.00027323 </v>
   <v>      -0.00193398       0.00033401      -0.00195466 </v>
   <v>      -0.00161606       0.00061395      -0.00058901 </v>
   <v>       0.00250674      -0.00012234      -0.00181045 </v>
   <v>       0.00021528       0.00109686       0.00018143 </v>
   <v>      -0.00072930      -0.00079397      -0.00126093 </v>
   <v>       0.00691348      -0.00261131      -0.00027323 </v>
   <v>       0.00067773      -0.00184189      -0.00195466 </v>
   <v>      -0.00833916      -0.00281755      -0.00280773 </v>
   <v>       0.00172951       0.00863070      -0.00280773 </v>
   <v>       0.00660965      -0.00581315      -0.00280773 </v>
   <v>      -0.00148086      -0.00290177       0.00254964 </v>
   <v>       0.00150386      -0.00160844       0.00002237 </v>
   <v>       0.00166778      -0.00288990      -0.00024764 </v>
   <v>      -0.00110245      -0.00058477      -0.00159402 </v>
   <v>       0.00374529       0.00238827      -0.00090852 </v>
   <v>       0.00096400      -0.00043721      -0.00130760 </v>
   <v>       0.00325344       0.00016842       0.00254964 </v>
   <v>      -0.00010336       0.00105346      -0.00130760 </v>
   <v>      -0.00394095       0.00204938      -0.00090852 </v>
   <v>       0.00105765      -0.00066236      -0.00159402 </v>
   <v>       0.00166884       0.00288929      -0.00024764 </v>
   <v>       0.00064101       0.00210660       0.00002237 </v>
   <v>      -0.00177258       0.00273335       0.00254964 </v>
   <v>      -0.00086064      -0.00061624      -0.00130760 </v>
   <v>       0.00019566      -0.00443765      -0.00090852 </v>
   <v>       0.00004480       0.00124713      -0.00159402 </v>
   <v>      -0.00333661       0.00000061      -0.00024764 </v>
   <v>      -0.00214488      -0.00049817       0.00002237 </v>
   <v>       0.00072595       0.00179448       0.00082451 </v>
   <v>       0.00086824      -0.00128177       0.00028731 </v>
   <v>       0.00340447      -0.00290495       0.00256868 </v>
   <v>      -0.00224651       0.00203324       0.00222892 </v>
   <v>       0.00107695      -0.00190209       0.00030800 </v>
   <v>      -0.00083522      -0.00031571      -0.00069365 </v>
   <v>      -0.00191704      -0.00026855       0.00082451 </v>
   <v>       0.00067593       0.00139280       0.00028731 </v>
   <v>       0.00081352       0.00440083       0.00256868 </v>
   <v>      -0.00063758      -0.00296216       0.00222892 </v>
   <v>       0.00110878       0.00188371       0.00030800 </v>
   <v>       0.00069102      -0.00056547      -0.00069365 </v>
   <v>       0.00119109      -0.00152593       0.00082451 </v>
   <v>      -0.00154416      -0.00011103       0.00028731 </v>
   <v>       0.00288409       0.00092891       0.00222892 </v>
   <v>      -0.00218574       0.00001838       0.00030800 </v>
   <v>       0.00014420       0.00088117      -0.00069365 </v>
   <v>       0.00194514       0.00234193       0.00103543 </v>
   <v>      -0.00020583       0.00283702       0.00141949 </v>
   <v>      -0.00300074       0.00051358       0.00103543 </v>
   <v>      -0.00235401      -0.00159676       0.00141949 </v>
   <v>       0.00105560      -0.00285551       0.00103543 </v>
   <v>       0.00214913       0.00332338       0.00191262 </v>
   <v>       0.00232233      -0.00196220       0.00084575 </v>
   <v>      -0.00183404      -0.00168023       0.00069200 </v>
   <v>      -0.00396334       0.00205166      -0.00305473 </v>
   <v>       0.00373166      -0.00074560       0.00218375 </v>
   <v>      -0.00022154       0.00045829      -0.00403609 </v>
   <v>       0.00020488      -0.00445819      -0.00305473 </v>
   <v>       0.00237214      -0.00074821       0.00069200 </v>
   <v>      -0.00028612      -0.00042100      -0.00403609 </v>
   <v>      -0.00122012       0.00360452       0.00218375 </v>
   <v>       0.00375846       0.00240653      -0.00305473 </v>
   <v>      -0.00053810       0.00242844       0.00069200 </v>
   <v>      -0.00251154      -0.00285891       0.00218375 </v>
   <v>       0.00050766      -0.00003729      -0.00403609 </v>
   <v>       0.00449956       0.00327134       0.00027954 </v>
   <v>      -0.00168863       0.00130380      -0.00368798 </v>
   <v>      -0.00052422       0.00042858      -0.00025051 </v>
   <v>      -0.00311313      -0.00148484      -0.00251202 </v>
   <v>      -0.00028481      -0.00211430      -0.00368798 </v>
   <v>      -0.00508285       0.00226107       0.00027954 </v>
   <v>       0.00284247      -0.00195363      -0.00251202 </v>
   <v>      -0.00010905      -0.00066828      -0.00025051 </v>
   <v>       0.00197344       0.00081050      -0.00368798 </v>
   <v>       0.00058328      -0.00553241       0.00027954 </v>
   <v>       0.00063327       0.00023970      -0.00025051 </v>
   <v>       0.00027066       0.00343847      -0.00251202 </v>
   <v>      -0.00501853      -0.00073220      -0.00091926 </v>
   <v>      -0.00395269       0.00019951       0.00191262 </v>
   <v>      -0.00266787      -0.00290102      -0.00090667 </v>
   <v>       0.00193526      -0.00486202       0.00038774 </v>
   <v>      -0.00145571      -0.00332535       0.00070871 </v>
   <v>       0.00142880      -0.00404810       0.00254054 </v>
   <v>       0.00314337      -0.00398007      -0.00091926 </v>
   <v>       0.00180356      -0.00352289       0.00191262 </v>
   <v>       0.00384629      -0.00085993      -0.00090667 </v>
   <v>       0.00324300       0.00410699       0.00038774 </v>
   <v>       0.00360769       0.00040199       0.00070871 </v>
   <v>       0.00279136       0.00326143       0.00254054 </v>
   <v>       0.00187516       0.00471227      -0.00091926 </v>
   <v>      -0.00117843       0.00376095      -0.00090667 </v>
   <v>      -0.00517826       0.00075503       0.00038774 </v>
   <v>      -0.00215198       0.00292336       0.00070871 </v>
   <v>      -0.00422016       0.00078667       0.00254054 </v>
   <v>       0.00053815       0.00299229       0.00084575 </v>
   <v>       0.00313068       0.00128439       0.00197295 </v>
   <v>      -0.00286048      -0.00103010       0.00084575 </v>
   <v>      -0.00267765       0.00206905       0.00197295 </v>
   <v>      -0.00045303      -0.00335344       0.00197295 </v>
  </varray>
  <varray name="stress" >
   <v>      -0.00242347       0.00000000      -0.00000000 </v>
   <v>      -0.00000000      -0.00242347       0.00000000 </v>
   <v>       0.00000000      -0.00000000      -0.14734810 </v>
  </varray>
  <energy>
   <i name="e_fr_energy">   -824.05014418 </i>
   <i name="e_wo_entrp">   -824.05014418 </i>
   <i name="e_0_energy">     -0.00000000 </i>
  </energy>
  <time name="totalsc"> 4054.06 4106.50</time>
  <eigenvalues>
   <array>
    <dimension dim="1">band</dimension>
    <dimension dim="2">kpoint</dimension>
    <dimension dim="3">spin</dimension>
    <field>eigene</field>
    <field>occ</field>
    <set>
     <set comment="spin 1">
      <set comment="kpoint 1">
       <r>  -25.0753    1.0000 </r>
       <r>  -25.0715    1.0000 </r>
       <r>  -22.1604    1.0000 </r>
       <r>  -22.1601    1.0000 </r>
       <r>  -22.1574    1.0000 </r>
       <r>  -22.1571    1.0000 </r>
       <r>  -21.5147    1.0000 </r>
       <r>  -21.4841    1.0000 </r>
       <r>  -21.4836    1.0000 </r>
       <r>  -21.1705    1.0000 </r>
       <r>  -21.1029    1.0000 </r>
       <r>  -21.1025    1.0000 </r>
       <r>  -20.7766    1.0000 </r>
       <r>  -20.7344    1.0000 </r>
       <r>  -20.7339    1.0000 </r>
       <r>  -19.4970    1.0000 </r>
       <r>  -19.4966    1.0000 </r>
       <r>  -19.4469    1.0000 </r>
       <r>  -19.0803    1.0000 </r>
       <r>  -19.0799    1.0000 </r>
       <r>  -19.0636    1.0000 </r>
       <r>  -18.6987    1.0000 </r>
       <r>  -18.6984    1.0000 </r>
       <r>  -18.4843    1.0000 </r>
       <r>  -18.2375    1.0000 </r>
       <r>  -18.2371    1.0000 </r>
       <r>  -18.2230    1.0000 </r>
       <r>  -18.1990    1.0000 </r>
       <r>  -18.1960    1.0000 </r>
       <r>  -18.1956    1.0000 </r>
       <r>  -17.9788    1.0000 </r>
       <r>  -17.9785    1.0000 </r>
       <r>  -17.7807    1.0000 </r>
       <r>  -17.0901    1.0000 </r>
       <r>  -17.0897    1.0000 </r>
       <r>  -16.9091    1.0000 </r>
       <r>  -16.6934    1.0000 </r>
       <r>  -16.6929    1.0000 </r>
       <r>  -16.3106    1.0000 </r>
       <r>  -16.2168    1.0000 </r>
       <r>  -16.2163    1.0000 </r>
       <r>  -15.9712    1.0000 </r>
       <r>  -15.9709    1.0000 </r>
       <r>  -15.5843    1.0000 </r>
       <r>  -14.9472    1.0000 </r>
       <r>  -14.9201    1.0000 </r>
       <r>  -14.8295    1.0000 </r>
       <r>  -14.8294    1.0000 </r>
       <r>  -14.6849    1.0000 </r>
       <r>  -14.6249    1.0000 </r>
       <r>  -14.6246    1.0000 </r>
       <r>  -14.4242    1.0000 </r>
       <r>  -14.4240    1.0000 </r>
       <r>  -13.9273    1.0000 </r>
       <r>  -13.9270    1.0000 </r>
       <r>  -13.8451    1.0000 </r>
       <r>  -13.7432    1.0000 </r>
       <r>  -13.7428    1.0000 </r>
       <r>  -13.6123    1.0000 </r>
       <r>  -13.4977    1.0000 </r>
       <r>  -13.4972    1.0000 </r>
       <r>  -13.0309    1.0000 </r>
       <r>  -12.9914    1.0000 </r>
       <r>  -12.9628    1.0000 </r>
       <r>  -12.9540    1.0000 </r>
       <r>  -12.3060    1.0000 </r>
       <r>  -12.3056    1.0000 </r>
       <r>  -12.1467    1.0000 </r>
       <r>  -12.1463    1.0000 </r>
       <r>  -12.0048    1.0000 </r>
       <r>  -11.6186    1.0000 </r>
       <r>  -11.6182    1.0000 </r>
       <r>  -11.5738    1.0000 </r>
       <r>  -11.3808    1.0000 </r>
       <r>  -11.2721    1.0000 </r>
       <r>  -11.2720    1.0000 </r>
       <r>  -10.9602    1.0000 </r>
       <r>  -10.9595    1.0000 </r>
       <r>  -10.9595    1.0000 </r>
       <r>  -10.9449    1.0000 </r>
       <r>  -10.7043    1.0000 </r>
       <r>  -10.7041    1.0000 </r>
       <r>  -10.6902    1.0000 </r>
       <r>  -10.6900    1.0000 </r>
       <r>  -10.6027    1.0000 </r>
       <r>  -10.5988    1.0000 </r>
       <r>  -10.4996    1.0000 </r>
       <r>  -10.4390    1.0000 </r>
       <r>  -10.4376    1.0000 </r>
       <r>  -10.4372    1.0000 </r>
       <r>  -10.2398    1.0000 </r>
       <r>  -10.2394    1.0000 </r>
       <r>  -10.2122    1.0000 </r>
       <r>  -10.0994    1.0000 </r>
       <r>  -10.0991    1.0000 </r>
       <r>   -9.9517    1.0000 </r>
       <r>   -9.9094    1.0000 </r>
       <r>   -9.9091    1.0000 </r>
       <r>   -9.8839    1.0000 </r>
       <r>   -9.8837    1.0000 </r>
       <r>   -9.8451    1.0000 </r>
       <r>   -9.8293    1.0000 </r>
       <r>   -9.6661    1.0000 </r>
       <r>   -9.6229    1.0000 </r>
       <r>   -9.6226    1.0000 </r>
       <r>   -9.4711    1.0000 </r>
       <r>   -9.4707    1.0000 </r>
       <r>   -9.4548    1.0000 </r>
       <r>   -9.4544    1.0000 </r>
       <r>   -9.4002    1.0000 </r>
       <r>   -9.3741    1.0000 </r>
       <r>   -9.2430    1.0000 </r>
       <r>   -9.2427    1.0000 </r>
       <r>   -9.1903    1.0000 </r>
       <r>   -9.1900    1.0000 </r>
       <r>   -9.1737    1.0000 </r>
       <r>   -9.1521    1.0000 </r>
       <r>   -9.1517    1.0000 </r>
       <r>   -9.0050    1.0000 </r>
       <r>   -8.8709    1.0000 </r>
       <r>   -8.8707    1.0000 </r>
       <r>   -8.7520    1.0000 </r>
       <r>   -8.7517    1.0000 </r>
       <r>   -8.6919    1.0000 </r>
       <r>   -8.4939    1.0000 </r>
       <r>   -8.4623    1.0000 </r>
       <r>   -8.3633    1.0000 </r>
       <r>   -8.3629    1.0000 </r>
       <r>   -8.3408    1.0000 </r>
       <r>   -8.3372    1.0000 </r>
       <r>   -8.2436    1.0000 </r>
       <r>   -8.1700    1.0000 </r>
       <r>   -8.1697    1.0000 </r>
       <r>   -8.0367    1.0000 </r>
       <r>   -8.0363    1.0000 </r>
       <r>   -7.9438    1.0000 </r>
       <r>   -7.9056    1.0000 </r>
       <r>   -7.9054    1.0000 </r>
       <r>   -7.8693    1.0000 </r>
       <r>   -7.8690    1.0000 </r>
       <r>   -7.7670    1.0000 </r>
       <r>   -7.7668    1.0000 </r>
       <r>   -7.7574    1.0000 </r>
       <r>   -7.6674    1.0000 </r>
       <r>   -7.5958    1.0000 </r>
       <r>   -7.5955    1.0000 </r>
       <r>   -7.5303    1.0000 </r>
       <r>   -7.4498    1.0000 </r>
       <r>   -7.4494    1.0000 </r>
       <r>   -6.3743    1.0000 </r>
       <r>   -6.2889    1.0000 </r>
       <r>   -6.2886    1.0000 </r>
       <r>   -6.1357    1.0000 </r>
       <r>   -6.1353    1.0000 </r>
       <r>   -6.1201    1.0000 </r>
       <r>   -6.1127    1.0000 </r>
       <r>   -6.1060    1.0000 </r>
       <r>   -6.1055    1.0000 </r>
       <r>   -5.9424    1.0000 </r>
       <r>   -5.8255    1.0000 </r>
       <r>   -5.8254    1.0000 </r>
       <r>   -5.6524    1.0000 </r>
       <r>   -5.6523    1.0000 </r>
       <r>   -5.6449    1.0000 </r>
       <r>   -5.6447    1.0000 </r>
       <r>   -5.6329    1.0000 </r>
       <r>   -5.6243    1.0000 </r>
       <r>   -5.6240    1.0000 </r>
       <r>   -5.2991    1.0000 </r>
       <r>   -5.2948    1.0000 </r>
       <r>   -5.2944    1.0000 </r>
       <r>   -2.5400    0.0000 </r>
       <r>   -2.5398    0.0000 </r>
       <r>   -2.4187    0.0000 </r>
       <r>   -2.4185    0.0000 </r>
       <r>   -1.6571    0.0000 </r>
       <r>   -1.2803    0.0000 </r>
       <r>   -1.1244    0.0000 </r>
       <r>   -1.1241    0.0000 </r>
       <r>   -1.0942    0.0000 </r>
       <r>   -0.9860    0.0000 </r>
       <r>   -0.9857    0.0000 </r>
       <r>   -0.9827    0.0000 </r>
       <r>   -0.8947    0.0000 </r>
       <r>   -0.8945    0.0000 </r>
       <r>   -0.7183    0.0000 </r>
       <r>   -0.7005    0.0000 </r>
       <r>   -0.7003    0.0000 </r>
       <r>   -0.4424    0.0000 </r>
       <r>   -0.3673    0.0000 </r>
       <r>   -0.2547    0.0000 </r>
       <r>   -0.2542    0.0000 </r>
       <r>   -0.1103    0.0000 </r>
       <r>    0.0178    0.0000 </r>
       <r>    0.0186    0.0000 </r>
       <r>    0.0368    0.0000 </r>
       <r>    0.0371    0.0000 </r>
       <r>    0.0631    0.0000 </r>
       <r>    0.1375    0.0000 </r>
       <r>    0.1382    0.0000 </r>
       <r>    0.3408    0.0000 </r>
       <r>    0.3411    0.0000 </r>
       <r>    0.3561    0.0000 </r>
       <r>    0.3954    0.0000 </r>
       <r>    0.3991    0.0000 </r>
       <r>    0.3991    0.0000 </r>
       <r>    0.4809    0.0000 </r>
       <r>    0.5054    0.0000 </r>
       <r>    0.5080    0.0000 </r>
       <r>    0.5081    0.0000 </r>
       <r>    0.5086    0.0000 </r>
       <r>    0.6134    0.0000 </r>
       <r>    0.6191    0.0000 </r>
       <r>    0.6198    0.0000 </r>
       <r>    0.6808    0.0000 </r>
       <r>    0.6821    0.0000 </r>
       <r>    0.7423    0.0000 </r>
       <r>    0.7432    0.0000 </r>
       <r>    0.8044    0.0000 </r>
       <r>    0.8218    0.0000 </r>
       <r>    0.8393    0.0000 </r>
       <r>    0.8701    0.0000 </r>
       <r>    0.8932    0.0000 </r>
       <r>    0.8951    0.0000 </r>
       <r>    0.9037    0.0000 </r>
       <r>    0.9412    0.0000 </r>
       <r>    0.9605    0.0000 </r>
       <r>    0.9609    0.0000 </r>
       <r>    0.9896    0.0000 </r>
       <r>    0.9926    0.0000 </r>
       <r>    1.0270    0.0000 </r>
       <r>    1.0272    0.0000 </r>
       <r>    1.0763    0.0000 </r>
       <r>    1.0768    0.0000 </r>
       <r>    1.0867    0.0000 </r>
       <r>    1.1614    0.0000 </r>
       <r>    1.1633    0.0000 </r>
       <r>    1.1638    0.0000 </r>
       <r>    1.2025    0.0000 </r>
       <r>    1.2167    0.0000 </r>
      </set>
      <set comment="kpoint 2">
       <r>  -25.0753    1.0000 </r>
       <r>  -25.0715    1.0000 </r>
       <r>  -22.1604    1.0000 </r>
       <r>  -22.1601    1.0000 </r>
       <r>  -22.1574    1.0000 </r>
       <r>  -22.1571    1.0000 </r>
       <r>  -21.5146    1.0000 </r>
       <r>  -21.4841    1.0000 </r>
       <r>  -21.4836    1.0000 </r>
       <r>  -21.1704    1.0000 </r>
       <r>  -21.1030    1.0000 </r>
       <r>  -21.1026    1.0000 </r>
       <r>  -20.7765    1.0000 </r>
       <r>  -20.7344    1.0000 </r>
       <r>  -20.7339    1.0000 </r>
       <r>  -19.4970    1.0000 </r>
       <r>  -19.4966    1.0000 </r>
       <r>  -19.4470    1.0000 </r>
       <r>  -19.0803    1.0000 </r>
       <r>  -19.0798    1.0000 </r>
       <r>  -19.0636    1.0000 </r>
       <r>  -18.6986    1.0000 </r>
       <r>  -18.6983    1.0000 </r>
       <r>  -18.4848    1.0000 </r>
       <r>  -18.2376    1.0000 </r>
       <r>  -18.2369    1.0000 </r>
       <r>  -18.2229    1.0000 </r>
       <r>  -18.1993    1.0000 </r>
       <r>  -18.1958    1.0000 </r>
       <r>  -18.1953    1.0000 </r>
       <r>  -17.9787    1.0000 </r>
       <r>  -17.9784    1.0000 </r>
       <r>  -17.7810    1.0000 </r>
       <r>  -17.0900    1.0000 </r>
       <r>  -17.0896    1.0000 </r>
       <r>  -16.9100    1.0000 </r>
       <r>  -16.6931    1.0000 </r>
       <r>  -16.6919    1.0000 </r>
       <r>  -16.3108    1.0000 </r>
       <r>  -16.2167    1.0000 </r>
       <r>  -16.2163    1.0000 </r>
       <r>  -15.9726    1.0000 </r>
       <r>  -15.9710    1.0000 </r>
       <r>  -15.5826    1.0000 </r>
       <r>  -14.9473    1.0000 </r>
       <r>  -14.9201    1.0000 </r>
       <r>  -14.8312    1.0000 </r>
       <r>  -14.8294    1.0000 </r>
       <r>  -14.6845    1.0000 </r>
       <r>  -14.6250    1.0000 </r>
       <r>  -14.6247    1.0000 </r>
       <r>  -14.4239    1.0000 </r>
       <r>  -14.4227    1.0000 </r>
       <r>  -13.9279    1.0000 </r>
       <r>  -13.9272    1.0000 </r>
       <r>  -13.8449    1.0000 </r>
       <r>  -13.7434    1.0000 </r>
       <r>  -13.7428    1.0000 </r>
       <r>  -13.6119    1.0000 </r>
       <r>  -13.4977    1.0000 </r>
       <r>  -13.4972    1.0000 </r>
       <r>  -13.0308    1.0000 </r>
       <r>  -12.9913    1.0000 </r>
       <r>  -12.9629    1.0000 </r>
       <r>  -12.9541    1.0000 </r>
       <r>  -12.3060    1.0000 </r>
       <r>  -12.3055    1.0000 </r>
       <r>  -12.1475    1.0000 </r>
       <r>  -12.1464    1.0000 </r>
       <r>  -12.0034    1.0000 </r>
       <r>  -11.6186    1.0000 </r>
       <r>  -11.6182    1.0000 </r>
       <r>  -11.5739    1.0000 </r>
       <r>  -11.3837    1.0000 </r>
       <r>  -11.2718    1.0000 </r>
       <r>  -11.2693    1.0000 </r>
       <r>  -10.9607    1.0000 </r>
       <r>  -10.9597    1.0000 </r>
       <r>  -10.9591    1.0000 </r>
       <r>  -10.9449    1.0000 </r>
       <r>  -10.7045    1.0000 </r>
       <r>  -10.7043    1.0000 </r>
       <r>  -10.6901    1.0000 </r>
       <r>  -10.6899    1.0000 </r>
       <r>  -10.6026    1.0000 </r>
       <r>  -10.5986    1.0000 </r>
       <r>  -10.4998    1.0000 </r>
       <r>  -10.4465    1.0000 </r>
       <r>  -10.4373    1.0000 </r>
       <r>  -10.4296    1.0000 </r>
       <r>  -10.2397    1.0000 </r>
       <r>  -10.2394    1.0000 </r>
       <r>  -10.2123    1.0000 </r>
       <r>  -10.0996    1.0000 </r>
       <r>  -10.0991    1.0000 </r>
       <r>   -9.9517    1.0000 </r>
       <r>   -9.9094    1.0000 </r>
       <r>   -9.9091    1.0000 </r>
       <r>   -9.8839    1.0000 </r>
       <r>   -9.8836    1.0000 </r>
       <r>   -9.8451    1.0000 </r>
       <r>   -9.8293    1.0000 </r>
       <r>   -9.6710    1.0000 </r>
       <r>   -9.6227    1.0000 </r>
       <r>   -9.6181    1.0000 </r>
       <r>   -9.4711    1.0000 </r>
       <r>   -9.4707    1.0000 </r>
       <r>   -9.4547    1.0000 </r>
       <r>   -9.4544    1.0000 </r>
       <r>   -9.3998    1.0000 </r>
       <r>   -9.3742    1.0000 </r>
       <r>   -9.2430    1.0000 </r>
       <r>   -9.2427    1.0000 </r>
       <r>   -9.1907    1.0000 </r>
       <r>   -9.1901    1.0000 </r>
       <r>   -9.1744    1.0000 </r>
       <r>   -9.1518    1.0000 </r>
       <r>   -9.1507    1.0000 </r>
       <r>   -9.0048    1.0000 </r>
       <r>   -8.8715    1.0000 </r>
       <r>   -8.8707    1.0000 </r>
       <r>   -8.7528    1.0000 </r>
       <r>   -8.7517    1.0000 </r>
       <r>   -8.6913    1.0000 </r>
       <r>   -8.4941    1.0000 </r>
       <r>   -8.4614    1.0000 </r>
       <r>   -8.3631    1.0000 </r>
       <r>   -8.3628    1.0000 </r>
       <r>   -8.3408    1.0000 </r>
       <r>   -8.3372    1.0000 </r>
       <r>   -8.2438    1.0000 </r>
       <r>   -8.1704    1.0000 </r>
       <r>   -8.1699    1.0000 </r>
       <r>   -8.0366    1.0000 </r>
       <r>   -8.0362    1.0000 </r>
       <r>   -7.9441    1.0000 </r>
       <r>   -7.9055    1.0000 </r>
       <r>   -7.9054    1.0000 </r>
       <r>   -7.8692    1.0000 </r>
       <r>   -7.8688    1.0000 </r>
       <r>   -7.7672    1.0000 </r>
       <r>   -7.7668    1.0000 </r>
       <r>   -7.7575    1.0000 </r>
       <r>   -7.6672    1.0000 </r>
[...]
       <r>   -20.4124     0.0000    30.0000 </r>
       <r>   -20.3160     0.0000    30.0000 </r>
       <r>   -20.2196     0.0000    30.0000 </r>
       <r>   -20.1232     0.0000    30.0000 </r>
       <r>   -20.0267     0.0000    30.0000 </r>
       <r>   -19.9303     0.0000    30.0000 </r>
       <r>   -19.8339     0.0000    30.0000 </r>
       <r>   -19.7375     0.0000    30.0000 </r>
       <r>   -19.6411     0.0000    30.0000 </r>
       <r>   -19.5447     0.0000    30.0000 </r>
       <r>   -19.4483    58.9457    35.6831 </r>
       <r>   -19.3519     0.0000    36.0000 </r>
       <r>   -19.2554     0.0000    36.0000 </r>
       <r>   -19.1590     0.0000    36.0000 </r>
       <r>   -19.0626    54.9177    41.2948 </r>
       <r>   -18.9662     0.0000    42.0000 </r>
       <r>   -18.8698     0.0000    42.0000 </r>
       <r>   -18.7734     0.0000    42.0000 </r>
       <r>   -18.6770    27.2664    44.6288 </r>
       <r>   -18.5806    18.2425    46.6257 </r>
       <r>   -18.4841     8.8883    47.8904 </r>
       <r>   -18.3877     0.0000    48.0000 </r>
       <r>   -18.2913     0.0000    48.0000 </r>
       <r>   -18.1949    85.4714    56.2405 </r>
       <r>   -18.0985    11.0263    60.0000 </r>
       <r>   -18.0021     0.0594    60.0057 </r>
       <r>   -17.9057    35.7923    63.4566 </r>
       <r>   -17.8093    15.8183    65.3254 </r>
       <r>   -17.7128     4.4909    66.0000 </r>
       <r>   -17.6164     0.0000    66.0000 </r>
       <r>   -17.5200     0.0000    66.0000 </r>
       <r>   -17.4236     0.0000    66.0000 </r>
       <r>   -17.3272     0.0000    66.0000 </r>
       <r>   -17.2308     0.0000    66.0000 </r>
       <r>   -17.1344     0.0000    66.0000 </r>
       <r>   -17.0380    41.2900    69.9809 </r>
       <r>   -16.9415    11.8204    71.5403 </r>
       <r>   -16.8451     3.1103    72.0000 </r>
       <r>   -16.7487     0.0000    72.0000 </r>
       <r>   -16.6523    25.0184    74.4121 </r>
       <r>   -16.5559     3.5994    74.8471 </r>
       <r>   -16.4595     8.6810    75.7703 </r>
       <r>   -16.3631    11.7977    77.0377 </r>
       <r>   -16.2666     8.2965    78.0000 </r>
       <r>   -16.1702    42.9972    82.1455 </r>
       <r>   -16.0738     8.8056    83.3160 </r>
       <r>   -15.9774     8.4037    84.2103 </r>
       <r>   -15.8810     0.0000    86.0000 </r>
       <r>   -15.7846     0.0000    86.0000 </r>
       <r>   -15.6882     0.0000    86.0000 </r>
       <r>   -15.5918     0.1739    86.0168 </r>
       <r>   -15.4953     3.4508    86.5327 </r>
       <r>   -15.3989     2.8154    86.8383 </r>
       <r>   -15.3025     6.2850    87.4728 </r>
       <r>   -15.2061     5.5010    88.0974 </r>
       <r>   -15.1097     7.0201    88.8768 </r>
       <r>   -15.0133     3.0766    89.2635 </r>
       <r>   -14.9169    36.5307    92.8554 </r>
       <r>   -14.8205    17.4962    95.1869 </r>
       <r>   -14.7240     0.0000    96.0000 </r>
       <r>   -14.6276    54.1238   101.2182 </r>
       <r>   -14.5312     0.0000   102.0000 </r>
       <r>   -14.4348     0.2740   102.0264 </r>
       <r>   -14.3384    20.4519   104.5728 </r>
       <r>   -14.2420     3.1368   104.9358 </r>
       <r>   -14.1456     9.1993   105.8870 </r>
       <r>   -14.0492     9.8417   107.0158 </r>
       <r>   -13.9527     7.4333   107.8169 </r>
       <r>   -13.8563     9.4833   110.0159 </r>
       <r>   -13.7599    31.6918   113.4564 </r>
       <r>   -13.6635    21.7355   116.0000 </r>
       <r>   -13.5671     8.9937   116.8671 </r>
       <r>   -13.4707    48.0408   121.9999 </r>
       <r>   -13.3743     0.0000   122.0000 </r>
       <r>   -13.2779     0.0000   122.0000 </r>
       <r>   -13.1814     0.0000   122.0000 </r>
       <r>   -13.0850     0.0000   122.0000 </r>
       <r>   -12.9886    32.0850   125.0934 </r>
       <r>   -12.8922    25.8911   130.0000 </r>
       <r>   -12.7958     0.0000   130.0000 </r>
       <r>   -12.6994     0.0000   130.0000 </r>
       <r>   -12.6030     0.0000   130.0000 </r>
       <r>   -12.5066     0.0000   130.0000 </r>
       <r>   -12.4101     0.0000   130.0000 </r>
       <r>   -12.3137     3.5975   130.3468 </r>
       <r>   -12.2173    26.5976   135.1652 </r>
       <r>   -12.1209    27.6314   137.9976 </r>
       <r>   -12.0245     0.0029   138.0003 </r>
       <r>   -11.9281     5.9614   138.5750 </r>
       <r>   -11.8317     3.6601   138.9864 </r>
       <r>   -11.7352     9.4331   139.9765 </r>
       <r>   -11.6388    12.5455   141.3763 </r>
       <r>   -11.5424    50.5925   147.2168 </r>
       <r>   -11.4460     3.1676   147.6054 </r>
       <r>   -11.3496     3.4561   148.0000 </r>
       <r>   -11.2532    11.6116   149.1195 </r>
       <r>   -11.1568     3.6722   150.6541 </r>
       <r>   -11.0604     9.6931   151.6680 </r>
       <r>   -10.9639    35.8118   155.5196 </r>
       <r>   -10.8675    13.0620   160.0000 </r>
       <r>   -10.7711     0.0000   160.0000 </r>
       <r>   -10.6747    75.1316   167.2436 </r>
       <r>   -10.5783    19.9341   169.9219 </r>
       <r>   -10.4819    46.2335   175.5935 </r>
       <r>   -10.3855    27.5557   178.3905 </r>
       <r>   -10.2891     6.2734   179.1049 </r>
       <r>   -10.1926    67.2445   186.0168 </r>
       <r>   -10.0962    29.9789   189.2575 </r>
       <r>    -9.9998     0.0000   190.0000 </r>
       <r>    -9.9034    54.7823   195.2817 </r>
       <r>    -9.8070    95.6763   205.2312 </r>
       <r>    -9.7106     3.9295   205.7123 </r>
       <r>    -9.6142    22.6781   207.9865 </r>
       <r>    -9.5178     5.1058   208.6924 </r>
       <r>    -9.4213    92.9115   217.8251 </r>
       <r>    -9.3249    22.5796   220.9789 </r>
       <r>    -9.2285    51.7959   226.3278 </r>
       <r>    -9.1321    61.7827   234.3246 </r>
       <r>    -9.0357    10.4509   235.5077 </r>
       <r>    -8.9393    32.9126   238.9735 </r>
       <r>    -8.8429    39.5276   243.2117 </r>
       <r>    -8.7465    24.5783   245.6699 </r>
       <r>    -8.6500     6.9036   246.6656 </r>
       <r>    -8.5536    19.4171   248.6727 </r>
       <r>    -8.4572    11.0540   250.1661 </r>
       <r>    -8.3608    18.4536   252.1460 </r>
       <r>    -8.2644    78.8475   261.2788 </r>
       <r>    -8.1680    33.1373   265.6965 </r>
       <r>    -8.0716     0.0000   266.0000 </r>
       <r>    -7.9752    53.2871   271.1376 </r>
       <r>    -7.8787    41.6619   275.4509 </r>
       <r>    -7.7823    44.8712   282.2608 </r>
       <r>    -7.6859    11.3674   286.0010 </r>
       <r>    -7.5895    56.6305   291.4609 </r>
       <r>    -7.4931    14.5023   293.3982 </r>
       <r>    -7.3967    38.3578   298.0000 </r>
       <r>    -7.3003     0.0000   298.0000 </r>
       <r>    -7.2038     0.0000   298.0000 </r>
       <r>    -7.1074     0.0000   298.0000 </r>
       <r>    -7.0110     0.0000   298.0000 </r>
       <r>    -6.9146     0.0000   298.0000 </r>
       <r>    -6.8182     0.0000   298.0000 </r>
       <r>    -6.7218     0.0000   298.0000 </r>
       <r>    -6.6254     0.0000   298.0000 </r>
       <r>    -6.5290     0.0000   298.0000 </r>
       <r>    -6.4325     0.0000   298.0000 </r>
       <r>    -6.3361    19.1118   299.8426 </r>
       <r>    -6.2397    34.8958   304.0000 </r>
       <r>    -6.1433     8.2806   304.7984 </r>
       <r>    -6.0469    80.1848   316.0000 </r>
       <r>    -5.9505     0.3203   316.0309 </r>
       <r>    -5.8541    25.8045   318.8884 </r>
       <r>    -5.7577    27.3054   322.0000 </r>
       <r>    -5.6612     4.5723   322.4408 </r>
       <r>    -5.5648    64.9709   336.0000 </r>
       <r>    -5.4684     0.0000   336.0000 </r>
       <r>    -5.3720     0.0000   336.0000 </r>
       <r>    -5.2756    62.0912   341.9864 </r>
       <r>    -5.1792     0.0000   342.0000 </r>
       <r>    -5.0828     0.0000   342.0000 </r>
       <r>    -4.9864     0.0000   342.0000 </r>
       <r>    -4.8899     0.0000   342.0000 </r>
       <r>    -4.7935     0.0000   342.0000 </r>
       <r>    -4.6971     0.0000   342.0000 </r>
       <r>    -4.6007     0.0000   342.0000 </r>
       <r>    -4.5043     0.0000   342.0000 </r>
       <r>    -4.4079     0.0000   342.0000 </r>
       <r>    -4.3115     0.0000   342.0000 </r>
       <r>    -4.2151     0.0000   342.0000 </r>
       <r>    -4.1186     0.0000   342.0000 </r>
       <r>    -4.0222     0.0000   342.0000 </r>
       <r>    -3.9258     0.0000   342.0000 </r>
       <r>    -3.8294     0.0000   342.0000 </r>
       <r>    -3.7330     0.0000   342.0000 </r>
       <r>    -3.6366     0.0000   342.0000 </r>
       <r>    -3.5402     0.0000   342.0000 </r>
       <r>    -3.4437     0.0000   342.0000 </r>
       <r>    -3.3473     0.0000   342.0000 </r>
       <r>    -3.2509     0.0000   342.0000 </r>
       <r>    -3.1545     0.0000   342.0000 </r>
       <r>    -3.0581     0.0000   342.0000 </r>
       <r>    -2.9617     0.0000   342.0000 </r>
       <r>    -2.8653     0.0000   342.0000 </r>
       <r>    -2.7689     0.0000   342.0000 </r>
       <r>    -2.6724     0.0000   342.0000 </r>
       <r>    -2.5760     0.0000   342.0000 </r>
       <r>    -2.4796    43.2848   346.1732 </r>
       <r>    -2.3832    31.8036   350.0000 </r>
       <r>    -2.2868     0.0000   350.0000 </r>
       <r>    -2.1904     0.0000   350.0000 </r>
       <r>    -2.0940     0.0000   350.0000 </r>
       <r>    -1.9976     0.0000   350.0000 </r>
       <r>    -1.9011     0.0000   350.0000 </r>
       <r>    -1.8047     0.0000   350.0000 </r>
       <r>    -1.7083     0.0000   350.0000 </r>
       <r>    -1.6119     7.0503   350.6797 </r>
       <r>    -1.5155    10.7384   351.8355 </r>
       <r>    -1.4191    10.1586   353.0462 </r>
       <r>    -1.3227     4.3171   353.5496 </r>
       <r>    -1.2263     3.7999   354.0000 </r>
       <r>    -1.1298     1.5084   354.1454 </r>
       <r>    -1.0334    58.5870   360.8839 </r>
       <r>    -0.9370    48.7449   366.0000 </r>
       <r>    -0.8406    19.7459   367.9038 </r>
       <r>    -0.7442    10.5175   369.6475 </r>
       <r>    -0.6478    40.2233   375.7138 </r>
       <r>    -0.5514    11.5168   377.0105 </r>
       <r>    -0.4550     5.9118   377.7033 </r>
       <r>    -0.3585     5.9280   378.5715 </r>
       <r>    -0.2621    30.7075   382.0633 </r>
       <r>    -0.1657     0.0000   384.0000 </r>
       <r>    -0.0693     8.0259   384.7738 </r>
       <r>     0.0271    39.9514   388.8867 </r>
       <r>     0.1235    34.8505   396.0605 </r>
       <r>     0.2199    38.4545   401.4753 </r>
       <r>     0.3163    12.5436   403.3432 </r>
       <r>     0.4128    51.1464   408.8676 </r>
       <r>     0.5092    49.8445   415.9061 </r>
       <r>     0.6056    48.0165   422.2303 </r>
       <r>     0.7020    72.9985   430.7080 </r>
       <r>     0.7984    66.7749   438.9066 </r>
       <r>     0.8948    88.0580   448.4585 </r>
       <r>     0.9912    77.2904   457.6539 </r>
       <r>     1.0877    92.2110   468.1265 </r>
       <r>     1.1841    85.4620   477.7746 </r>
       <r>     1.2805    11.0468   480.0000 </r>
       <r>     1.3769     0.0000   480.0000 </r>
       <r>     1.4733     0.0000   480.0000 </r>
       <r>     1.5697     0.0000   480.0000 </r>
       <r>     1.6661     0.0000   480.0000 </r>
       <r>     1.7625     0.0000   480.0000 </r>
       <r>     1.8590     0.0000   480.0000 </r>
       <r>     1.9554     0.0000   480.0000 </r>
       <r>     2.0518     0.0000   480.0000 </r>
       <r>     2.1482     0.0000   480.0000 </r>
       <r>     2.2446     0.0000   480.0000 </r>
       <r>     2.3410     0.0000   480.0000 </r>
       <r>     2.4374     0.0000   480.0000 </r>
       <r>     2.5338     0.0000   480.0000 </r>
      </set>
     </set>
    </array>
   </total>
  </dos>
 </calculation>
 <structure name="finalpos" >
  <crystal>
   <varray name="basis" >
    <v>      29.47767834      -0.00000002       0.00000000 </v>
    <v>     -14.73883915      25.52841829       0.00000000 </v>
    <v>       0.00000000       0.00000000      20.00000000 </v>
   </varray>
   <i name="volume">  15050.37005263 </i>
   <varray name="rec_basis" >
    <v>       0.03392397       0.01958602       0.00000000 </v>
    <v>       0.00000000       0.03917203       0.00000000 </v>
    <v>       0.00000000       0.00000000       0.05000000 </v>
   </varray>
  </crystal>
  <varray name="positions" >
   <v>       0.38716449       0.69365934       0.49543121 </v>
   <v>       0.30649485       0.61283551       0.49543121 </v>
   <v>       0.30634066       0.69350515       0.49543121 </v>
   <v>       0.61282464       0.30648469       0.49526956 </v>
   <v>       0.69366005       0.38717536       0.49526956 </v>
   <v>       0.69351531       0.30633995       0.49526956 </v>
   <v>       0.02774144       0.52828467       0.56584971 </v>
   <v>       0.02720667       0.49529154       0.45418929 </v>
   <v>       0.35900665       0.71815613       0.49556545 </v>
   <v>       0.35914949       0.64099335       0.49556545 </v>
   <v>       0.28184387       0.64085051       0.49556545 </v>
   <v>       0.38819543       0.61213066       0.49726038 </v>
   <v>       0.44297418       0.63885590       0.49071748 </v>
   <v>       0.47031389       0.61173581       0.49406982 </v>
   <v>       0.44398549       0.55735690       0.50513593 </v>
   <v>       0.38906319       0.53075934       0.51087907 </v>
   <v>       0.36149739       0.55756771       0.50667570 </v>
   <v>       0.38786934       0.77606477       0.49726038 </v>
   <v>       0.44243229       0.80392967       0.50667570 </v>
   <v>       0.46924066       0.85830385       0.51087907 </v>
   <v>       0.44264310       0.88662859       0.50513593 </v>
   <v>       0.38826419       0.85857808       0.49406982 </v>
   <v>       0.36114410       0.80411828       0.49071748 </v>
   <v>       0.22393523       0.61180457       0.49726038 </v>
   <v>       0.19607033       0.63850261       0.50667570 </v>
   <v>       0.14169615       0.61093681       0.51087907 </v>
   <v>       0.11337141       0.55601451       0.50513593 </v>
   <v>       0.14142192       0.52968611       0.49406982 </v>
   <v>       0.19588172       0.55702582       0.49071748 </v>
   <v>       0.64085774       0.28183839       0.49539979 </v>
   <v>       0.64098066       0.35914226       0.49539979 </v>
   <v>       0.71816161       0.35901934       0.49539979 </v>
   <v>       0.61214674       0.38822456       0.49711483 </v>
   <v>       0.55758463       0.36154968       0.50651661 </v>
   <v>       0.53079923       0.38913525       0.51079730 </v>
   <v>       0.55741432       0.44406146       0.50513361 </v>
   <v>       0.61180114       0.47037950       0.49412093 </v>
   <v>       0.63889561       0.44301585       0.49068739 </v>
   <v>       0.61177544       0.22392218       0.49711483 </v>
   <v>       0.55698415       0.19587976       0.49068739 </v>
   <v>       0.52962050       0.14142163       0.49412093 </v>
   <v>       0.55593854       0.11335286       0.50513361 </v>
   <v>       0.61086475       0.14166399       0.51079730 </v>
   <v>       0.63845032       0.19603495       0.50651661 </v>
   <v>       0.77607782       0.38785326       0.49711483 </v>
   <v>       0.80412024       0.36110439       0.49068739 </v>
   <v>       0.85857837       0.38819886       0.49412093 </v>
   <v>       0.88664714       0.44258568       0.50513361 </v>
   <v>       0.85833601       0.46920077       0.51079730 </v>
   <v>       0.80396505       0.44241537       0.50651661 </v>
   <v>       0.52896112       0.47369201       0.50909251 </v>
   <v>       0.47363178       0.52892380       0.50909116 </v>
   <v>       0.47171533       0.49945677       0.56584971 </v>
   <v>       0.49948486       0.47175372       0.56585080 </v>
   <v>       0.44257816       0.49874283       0.62822641 </v>
   <v>       0.49884631       0.44265702       0.62822892 </v>
   <v>       0.52630799       0.05526911       0.50909251 </v>
   <v>       0.47107620       0.94470797       0.50909116 </v>
   <v>       0.50054323       0.97225856       0.56584971 </v>
   <v>       0.52824628       0.02773114       0.56585080 </v>
   <v>       0.50125717       0.94383533       0.62822641 </v>
   <v>       0.55734298       0.05618929       0.62822892 </v>
   <v>       0.94473089       0.47103888       0.50909251 </v>
   <v>       0.05529203       0.52636822       0.50909116 </v>
   <v>       0.97226886       0.50051514       0.56585080 </v>
   <v>       0.05616467       0.55742184       0.62822641 </v>
   <v>       0.94381071       0.50115369       0.62822892 </v>
   <v>       0.53191775       0.50474853       0.45418427 </v>
   <v>       0.50470846       0.53191513       0.45418929 </v>
   <v>       0.49525147       0.02716922       0.45418427 </v>
   <v>       0.46808487       0.97279333       0.45418929 </v>
   <v>       0.97283078       0.46808225       0.45418427 </v>
   <v>       0.04253934       0.53126098       0.67197133 </v>
   <v>       0.04865276       0.49383975       0.41053202 </v>
   <v>       0.51159075       0.87955910       0.51834834 </v>
   <v>       0.46315551       0.78210965       0.51107352 </v>
   <v>       0.36711030       0.88002526       0.48935090 </v>
   <v>       0.31884640       0.78243010       0.48345672 </v>
   <v>       0.21789035       0.68104586       0.51107352 </v>
   <v>       0.12044090       0.63203166       0.51834834 </v>
   <v>       0.21756990       0.53641630       0.48345672 </v>
   <v>       0.11997474       0.48708504       0.48935090 </v>
   <v>       0.31895414       0.53684449       0.51107352 </v>
   <v>       0.36796834       0.48840925       0.51834834 </v>
   <v>       0.51291496       0.63288970       0.48935090 </v>
   <v>       0.46358370       0.68115360       0.48345672 </v>
   <v>       0.48700923       0.11998422       0.48951947 </v>
   <v>       0.53637953       0.21757306       0.48345812 </v>
   <v>       0.63195332       0.12040513       0.51827798 </v>
   <v>       0.68099707       0.21783539       0.51086263 </v>
   <v>       0.78242694       0.31880647       0.48345812 </v>
   <v>       0.88001578       0.36702502       0.48951947 </v>
   <v>       0.78216461       0.46316168       0.51086263 </v>
   <v>       0.87959487       0.51154819       0.51827798 </v>
   <v>       0.68119353       0.46362047       0.48345812 </v>
   <v>       0.63297498       0.51299077       0.48951947 </v>
   <v>       0.48845181       0.36804668       0.51827798 </v>
   <v>       0.53683832       0.31900293       0.51086263 </v>
   <v>       0.42614603       0.52470385       0.62423117 </v>
   <v>       0.46873902       0.51127836       0.67197133 </v>
   <v>       0.41027260       0.45906055       0.63964579 </v>
   <v>       0.52489903       0.42633172       0.62422083 </v>
   <v>       0.45920535       0.41027210       0.63963068 </v>
   <v>       0.51132268       0.46881500       0.67197428 </v>
   <v>       0.47529615       0.90144218       0.62423117 </v>
   <v>       0.48872164       0.95746066       0.67197133 </v>
   <v>       0.54093945       0.95121205       0.63964579 </v>
   <v>       0.57366828       0.09856730       0.62422083 </v>
   <v>       0.58972790       0.04893325       0.63963068 </v>
   <v>       0.53118500       0.04250768       0.67197428 </v>
   <v>       0.09855782       0.57385397       0.62423117 </v>
   <v>       0.04878795       0.58972740       0.63964579 </v>
   <v>       0.90143270       0.47510097       0.62422083 </v>
   <v>       0.95106675       0.54079465       0.63963068 </v>
   <v>       0.95749232       0.48867732       0.67197428 </v>
   <v>       0.50616025       0.55481301       0.41053202 </v>
   <v>       0.55481664       0.50622395       0.41051520 </v>
   <v>       0.44518699       0.95134724       0.41053202 </v>
   <v>       0.49377605       0.04859270       0.41051520 </v>
   <v>       0.95140730       0.44518336       0.41051520 </v>
  </varray>
 </structure>
</modeling>
