<?xml version="1.0" encoding="ISO-8859-1"?>
<modeling>
 <generator>
  <i name="program" type="string">vasp </i>
  <i name="version" type="string">5.4.4.18Apr17-6-g9f103f2a35  </i>
  <i name="subversion" type="string">(build Jun 07 2020 16:50:00) complex            parallel </i>
  <i name="platform" type="string">LinuxIFC </i>
  <i name="date" type="string">2023 02 22 </i>
  <i name="time" type="string">05:47:02 </i>
 </generator>
 <incar>
  <i type="string" name="SYSTEM">Simulation for cell shape cell volume r</i>
  <i type="int" name="ISTART">     1</i>
  <i type="string" name="PREC">high</i>
  <i type="string" name="ALGO">48</i>
  <i type="int" name="ICHARG">    11</i>
  <i type="int" name="NELM">   200</i>
  <i type="int" name="IBRION">    -1</i>
  <i name="EDIFF">      0.00001000</i>
  <i name="EDIFFG">     -0.01000000</i>
  <i type="int" name="NSW">     0</i>
  <i type="int" name="ISIF">     2</i>
  <i name="ENCUT">    500.00000000</i>
  <i name="POTIM">      0.30000000</i>
  <i type="string" name="LREAL">A</i>
  <i type="int" name="ISMEAR">     0</i>
  <i name="SIGMA">      0.01000000</i>
  <i type="int" name="NWRITE">     0</i>
  <i type="logical" name="LWAVE"> F  </i>
  <i type="logical" name="LCHARG"> F  </i>
  <v type="int" name="KPOINT_BSE">    -1     0     0     0</v>
  <i type="int" name="NELM">   200</i>
  <i type="string" name="GGA">PE</i>
 </incar>
 <structure name="primitive_cell" >
  <crystal>
   <varray name="basis" >
    <v>      22.38533608       0.00270243       0.00000000 </v>
    <v>     -11.19035515      19.35521967       0.00000000 </v>
    <v>       0.00000000       0.00000000      20.00000000 </v>
   </varray>
   <i name="volume">   8666.06676502 </i>
   <varray name="rec_basis" >
    <v>       0.04466898       0.02582568       0.00000000 </v>
    <v>      -0.00000624       0.05166204       0.00000000 </v>
    <v>       0.00000000       0.00000000       0.05000000 </v>
   </varray>
  </crystal>
  <varray name="positions" >
   <v>       0.35283650      -0.38264378       0.44211959 </v>
   <v>       0.40009517      -0.31182825       0.44214228 </v>
   <v>       0.28208427      -0.40532846       0.44240022 </v>
   <v>       0.37208333      -0.43786574       0.44795513 </v>
   <v>       0.24786582      -0.46120779       0.44417367 </v>
   <v>       0.45590558      -0.29017009       0.44375424 </v>
   <v>       0.32844216      -0.49971944       0.44693785 </v>
   <v>       0.25865842      -0.35799806       0.44324402 </v>
   <v>       0.37749668      -0.26366420       0.44303083 </v>
   <v>       0.44154446      -0.41444955       0.45732942 </v>
   <v>       0.47626452      -0.36430550       0.44739963 </v>
   <v>       0.30678027      -0.28715299       0.44325831 </v>
   <v>       0.46739414      -0.45715634       0.47704117 </v>
   <v>       0.43282846      -0.18931373       0.44983567 </v>
   <v>       0.18437236      -0.37712076       0.45011180 </v>
   <v>       0.15326034      -0.48145299       0.44861570 </v>
   <v>       0.28520566      -0.25293249       0.44581432 </v>
   <v>       0.49450803      -0.17153589       0.44958734 </v>
   <v>       0.13819182      -0.44665169       0.45938644 </v>
   <v>       0.38777315       0.48257446      -0.42449171 </v>
   <v>       0.44055924       0.49568704      -0.46950371 </v>
   <v>       0.16644663      -0.33328520       0.44983851 </v>
   <v>       0.40969868      -0.14297680       0.45906359 </v>
   <v>      -0.47596649      -0.45587616       0.44669696 </v>
   <v>       0.35994635      -0.15795699       0.44797177 </v>
   <v>      -0.44006180      -0.41658622       0.39204729 </v>
   <v>       0.38609318       0.43619414      -0.38465800 </v>
   <v>       0.06955857      -0.47248739       0.47868653 </v>
   <v>       0.46954792       0.45446723      -0.45183605 </v>
   <v>       0.45242494      -0.07436239       0.47875598 </v>
   <v>      -0.44706218      -0.49720898       0.46426329 </v>
   <v>      -0.48796981      -0.09385910      -0.42237848 </v>
   <v>       0.35190687       0.41139522      -0.34250788 </v>
   <v>       0.08872608      -0.39360133      -0.42222869 </v>
   <v>       0.04911548      -0.44584578      -0.46783186 </v>
   <v>       0.43378229       0.41539899      -0.39702271 </v>
   <v>      -0.39247472      -0.43749257       0.37955060 </v>
   <v>       0.01764950       0.43556717       0.39291668 </v>
   <v>       0.01420780       0.47130880       0.44768602 </v>
   <v>       0.49930190      -0.05406109      -0.46761516 </v>
   <v>      -0.47391679       0.45560242      -0.48229220 </v>
   <v>      -0.39430414      -0.48406380       0.41920796 </v>
   <v>      -0.35823969      -0.41258911       0.33745493 </v>
   <v>       0.45144168      -0.01887641       0.44819536 </v>
   <v>      -0.44169671      -0.04916728      -0.38247696 </v>
   <v>       0.41246723      -0.02217788       0.39332503 </v>
   <v>       0.04392870      -0.39172257      -0.38277584 </v>
   <v>      -0.41719801      -0.05864378      -0.34014003 </v>
   <v>      -0.02118034      -0.47441724      -0.45082523 </v>
   <v>      -0.05086546       0.38849953       0.37973503 </v>
   <v>      -0.05608957       0.44279754       0.46464033 </v>
   <v>      -0.45939309       0.01623389      -0.45000215 </v>
   <v>      -0.44822717       0.41273423      -0.46259392 </v>
   <v>       0.05323279      -0.35779781      -0.34039665 </v>
   <v>      -0.06014467       0.35448403       0.33744289 </v>
   <v>      -0.48306358       0.36266381      -0.45248140 </v>
   <v>      -0.42061043       0.01943550      -0.39502276 </v>
   <v>      -0.02459911      -0.43881597      -0.39592613 </v>
   <v>       0.49281410       0.05142069       0.46574144 </v>
   <v>      -0.07656492       0.46952007      -0.48195819 </v>
   <v>      -0.09566621       0.39051340       0.41908582 </v>
   <v>      -0.33490498       0.49763772      -0.45291624 </v>
   <v>       0.43358937       0.04643696       0.38071894 </v>
   <v>      -0.46020343       0.07176182      -0.48069172 </v>
   <v>      -0.37881501       0.43585777      -0.45340351 </v>
   <v>       0.40900265       0.05589184       0.33843260 </v>
   <v>       0.48001832       0.09116406       0.42049160 </v>
   <v>      -0.14524906       0.44393729      -0.46290926 </v>
   <v>      -0.46312259       0.28809011      -0.44747378 </v>
   <v>      -0.41718827       0.14047666      -0.46127098 </v>
   <v>      -0.35991615       0.38041801      -0.44692258 </v>
   <v>      -0.17384151       0.33050578      -0.45306955 </v>
   <v>      -0.16016881       0.47887133      -0.45219252 </v>
   <v>      -0.36712307       0.15568796      -0.45150072 </v>
   <v>      -0.19163930       0.37443821      -0.45367979 </v>
   <v>      -0.40732055       0.30961894      -0.44607112 </v>
   <v>      -0.25490283       0.45878276      -0.44959196 </v>
   <v>       0.49804036       0.16886102      -0.45047567 </v>
   <v>      -0.44024736       0.18682908      -0.45181477 </v>
   <v>      -0.28920260       0.40293719      -0.44718105 </v>
   <v>      -0.38486257       0.26131940      -0.44615712 </v>
   <v>      -0.26591401       0.35549577      -0.44718323 </v>
   <v>      -0.29269762       0.25035579      -0.44840299 </v>
   <v>      -0.31416868       0.28469144      -0.44647203 </v>
  </varray>
 </structure>
 <varray name="primitive_index" >
  <v type="int" >        1 </v>
  <v type="int" >        5 </v>
  <v type="int" >        2 </v>
  <v type="int" >        6 </v>
  <v type="int" >       45 </v>
  <v type="int" >       44 </v>
  <v type="int" >       62 </v>
  <v type="int" >        3 </v>
  <v type="int" >       27 </v>
  <v type="int" >       82 </v>
  <v type="int" >       58 </v>
  <v type="int" >        4 </v>
  <v type="int" >       35 </v>
  <v type="int" >       28 </v>
  <v type="int" >        7 </v>
  <v type="int" >       60 </v>
  <v type="int" >       43 </v>
  <v type="int" >       61 </v>
  <v type="int" >       84 </v>
  <v type="int" >       75 </v>
  <v type="int" >       21 </v>
  <v type="int" >       63 </v>
  <v type="int" >       80 </v>
  <v type="int" >       36 </v>
  <v type="int" >       56 </v>
  <v type="int" >       71 </v>
  <v type="int" >       22 </v>
  <v type="int" >       39 </v>
  <v type="int" >       20 </v>
  <v type="int" >       31 </v>
  <v type="int" >       37 </v>
  <v type="int" >       73 </v>
  <v type="int" >       51 </v>
  <v type="int" >       77 </v>
  <v type="int" >       25 </v>
  <v type="int" >       68 </v>
  <v type="int" >       38 </v>
  <v type="int" >       72 </v>
  <v type="int" >       40 </v>
  <v type="int" >       17 </v>
  <v type="int" >       19 </v>
  <v type="int" >       81 </v>
  <v type="int" >       57 </v>
  <v type="int" >       32 </v>
  <v type="int" >       18 </v>
  <v type="int" >       70 </v>
  <v type="int" >       26 </v>
  <v type="int" >       49 </v>
  <v type="int" >       24 </v>
  <v type="int" >       42 </v>
  <v type="int" >       41 </v>
  <v type="int" >       16 </v>
  <v type="int" >       76 </v>
  <v type="int" >       53 </v>
  <v type="int" >       59 </v>
  <v type="int" >       52 </v>
  <v type="int" >       67 </v>
  <v type="int" >       69 </v>
  <v type="int" >       33 </v>
  <v type="int" >       23 </v>
  <v type="int" >       83 </v>
  <v type="int" >       65 </v>
  <v type="int" >       34 </v>
  <v type="int" >       15 </v>
  <v type="int" >       13 </v>
  <v type="int" >       55 </v>
  <v type="int" >       79 </v>
  <v type="int" >       78 </v>
  <v type="int" >       47 </v>
  <v type="int" >       74 </v>
  <v type="int" >        8 </v>
  <v type="int" >       66 </v>
  <v type="int" >       54 </v>
  <v type="int" >       50 </v>
  <v type="int" >       14 </v>
  <v type="int" >       12 </v>
  <v type="int" >       48 </v>
  <v type="int" >       64 </v>
  <v type="int" >       30 </v>
  <v type="int" >        9 </v>
  <v type="int" >       29 </v>
  <v type="int" >       10 </v>
  <v type="int" >       46 </v>
  <v type="int" >       11 </v>
 </varray>
 <kpoints>
  <generation param="listgenerated">
   <i name="divisions" type="int">      20 </i>
   <v>       0.00000000       0.00000000       0.00000000 </v>
   <v>       0.50000000       0.00000000       0.00000000 </v>
   <v>       0.33333333       0.33333333       0.00000000 </v>
   <v>       0.00000000       0.00000000       0.00000000 </v>
  </generation>
  <varray name="kpointlist" >
   <v>       0.00000000       0.00000000       0.00000000 </v>
   <v>       0.02631579       0.00000000       0.00000000 </v>
   <v>       0.05263158       0.00000000       0.00000000 </v>
   <v>       0.07894737       0.00000000       0.00000000 </v>
   <v>       0.10526316       0.00000000       0.00000000 </v>
   <v>       0.13157895       0.00000000       0.00000000 </v>
   <v>       0.15789474       0.00000000       0.00000000 </v>
   <v>       0.18421053       0.00000000       0.00000000 </v>
   <v>       0.21052632       0.00000000       0.00000000 </v>
   <v>       0.23684211       0.00000000       0.00000000 </v>
   <v>       0.26315789       0.00000000       0.00000000 </v>
   <v>       0.28947368       0.00000000       0.00000000 </v>
   <v>       0.31578947       0.00000000       0.00000000 </v>
   <v>       0.34210526       0.00000000       0.00000000 </v>
   <v>       0.36842105       0.00000000       0.00000000 </v>
   <v>       0.39473684       0.00000000       0.00000000 </v>
   <v>       0.42105263       0.00000000       0.00000000 </v>
   <v>       0.44736842       0.00000000       0.00000000 </v>
   <v>       0.47368421       0.00000000       0.00000000 </v>
   <v>       0.50000000       0.00000000       0.00000000 </v>
   <v>       0.50000000       0.00000000       0.00000000 </v>
   <v>       0.49122807       0.01754386       0.00000000 </v>
   <v>       0.48245614       0.03508772       0.00000000 </v>
   <v>       0.47368421       0.05263158       0.00000000 </v>
   <v>       0.46491228       0.07017544       0.00000000 </v>
   <v>       0.45614035       0.08771930       0.00000000 </v>
   <v>       0.44736842       0.10526316       0.00000000 </v>
   <v>       0.43859649       0.12280702       0.00000000 </v>
   <v>       0.42982456       0.14035088       0.00000000 </v>
   <v>       0.42105263       0.15789474       0.00000000 </v>
   <v>       0.41228070       0.17543860       0.00000000 </v>
   <v>       0.40350877       0.19298246       0.00000000 </v>
   <v>       0.39473684       0.21052632       0.00000000 </v>
   <v>       0.38596491       0.22807018       0.00000000 </v>
   <v>       0.37719298       0.24561404       0.00000000 </v>
   <v>       0.36842105       0.26315789       0.00000000 </v>
   <v>       0.35964912       0.28070175       0.00000000 </v>
   <v>       0.35087719       0.29824561       0.00000000 </v>
   <v>       0.34210526       0.31578947       0.00000000 </v>
   <v>       0.33333333       0.33333333       0.00000000 </v>
   <v>       0.33333333       0.33333333       0.00000000 </v>
   <v>       0.31578947       0.31578947       0.00000000 </v>
   <v>       0.29824561       0.29824561       0.00000000 </v>
   <v>       0.28070175       0.28070175       0.00000000 </v>
   <v>       0.26315789       0.26315789       0.00000000 </v>
   <v>       0.24561404       0.24561404       0.00000000 </v>
   <v>       0.22807018       0.22807018       0.00000000 </v>
   <v>       0.21052632       0.21052632       0.00000000 </v>
   <v>       0.19298246       0.19298246       0.00000000 </v>
   <v>       0.17543860       0.17543860       0.00000000 </v>
   <v>       0.15789474       0.15789474       0.00000000 </v>
   <v>       0.14035088       0.14035088       0.00000000 </v>
   <v>       0.12280702       0.12280702       0.00000000 </v>
   <v>       0.10526316       0.10526316       0.00000000 </v>
   <v>       0.08771930       0.08771930       0.00000000 </v>
   <v>       0.07017544       0.07017544       0.00000000 </v>
   <v>       0.05263158       0.05263158       0.00000000 </v>
   <v>       0.03508772       0.03508772       0.00000000 </v>
   <v>       0.01754386       0.01754386       0.00000000 </v>
   <v>       0.00000000       0.00000000       0.00000000 </v>
  </varray>
  <varray name="weights" >
   <v>       0.01666667 </v>
   <v>       0.01666667 </v>
   <v>       0.01666667 </v>
   <v>       0.01666667 </v>
   <v>       0.01666667 </v>
   <v>       0.01666667 </v>
   <v>       0.01666667 </v>
   <v>       0.01666667 </v>
   <v>       0.01666667 </v>
   <v>       0.01666667 </v>
   <v>       0.01666667 </v>
   <v>       0.01666667 </v>
   <v>       0.01666667 </v>
   <v>       0.01666667 </v>
   <v>       0.01666667 </v>
   <v>       0.01666667 </v>
   <v>       0.01666667 </v>
   <v>       0.01666667 </v>
   <v>       0.01666667 </v>
   <v>       0.01666667 </v>
   <v>       0.01666667 </v>
   <v>       0.01666667 </v>
   <v>       0.01666667 </v>
   <v>       0.01666667 </v>
   <v>       0.01666667 </v>
   <v>       0.01666667 </v>
   <v>       0.01666667 </v>
   <v>       0.01666667 </v>
   <v>       0.01666667 </v>
   <v>       0.01666667 </v>
   <v>       0.01666667 </v>
   <v>       0.01666667 </v>
   <v>       0.01666667 </v>
   <v>       0.01666667 </v>
   <v>       0.01666667 </v>
   <v>       0.01666667 </v>
   <v>       0.01666667 </v>
   <v>       0.01666667 </v>
   <v>       0.01666667 </v>
   <v>       0.01666667 </v>
   <v>       0.01666667 </v>
   <v>       0.01666667 </v>
   <v>       0.01666667 </v>
   <v>       0.01666667 </v>
   <v>       0.01666667 </v>
   <v>       0.01666667 </v>
   <v>       0.01666667 </v>
   <v>       0.01666667 </v>
   <v>       0.01666667 </v>
   <v>       0.01666667 </v>
   <v>       0.01666667 </v>
   <v>       0.01666667 </v>
   <v>       0.01666667 </v>
   <v>       0.01666667 </v>
   <v>       0.01666667 </v>
   <v>       0.01666667 </v>
   <v>       0.01666667 </v>
   <v>       0.01666667 </v>
   <v>       0.01666667 </v>
   <v>       0.01666667 </v>
  </varray>
 </kpoints>
 <parameters>
  <separator name="general" >
   <i type="string" name="SYSTEM">Simulation for cell shape cell volume r</i>
   <i type="logical" name="LCOMPAT"> F  </i>
  </separator>
  <separator name="electronic" >
   <i type="string" name="PREC">high</i>
   <i name="ENMAX">    500.00000000</i>
   <i name="ENAUG">    644.87300000</i>
   <i name="EDIFF">      0.00001000</i>
   <i type="int" name="IALGO">    38</i>
   <i type="int" name="IWAVPR">    10</i>
   <i type="int" name="NBANDS">   208</i>
   <i name="NELECT">    318.00000000</i>
   <i type="int" name="TURBO">     0</i>
   <i type="int" name="IRESTART">     0</i>
   <i type="int" name="NREBOOT">     0</i>
   <i type="int" name="NMIN">     0</i>
   <i name="EREF">      0.00000000</i>
   <separator name="electronic smearing" >
    <i type="int" name="ISMEAR">     0</i>
    <i name="SIGMA">      0.01000000</i>
    <i name="KSPACING">      0.50000000</i>
    <i type="logical" name="KGAMMA"> T  </i>
   </separator>
   <separator name="electronic projectors" >
    <i type="logical" name="LREAL"> T  </i>
    <v name="ROPT">     -0.00040000     -0.00040000     -0.00040000     -0.00040000</v>
    <i type="int" name="LMAXPAW">  -100</i>
    <i type="int" name="LMAXMIX">     2</i>
    <i type="logical" name="NLSPLINE"> F  </i>
   </separator>
   <separator name="electronic startup" >
    <i type="int" name="ISTART">     1</i>
    <i type="int" name="ICHARG">    11</i>
    <i type="int" name="INIWAV">     1</i>
   </separator>
   <separator name="electronic spin" >
    <i type="int" name="ISPIN">     1</i>
    <i type="logical" name="LNONCOLLINEAR"> F  </i>
    <v name="MAGMOM">      1.00000000      1.00000000      1.00000000      1.00000000      1.00000000      1.00000000      1.00000000      1.00000000      1.00000000      1.00000000      1.00000000      1.00000000      1.00000000      1.00000000      1.00000000      1.00000000      1.00000000      1.00000000      1.00000000      1.00000000
      1.00000000      1.00000000      1.00000000      1.00000000      1.00000000      1.00000000      1.00000000      1.00000000      1.00000000      1.00000000      1.00000000      1.00000000      1.00000000      1.00000000      1.00000000      1.00000000      1.00000000      1.00000000      1.00000000      1.00000000
      1.00000000      1.00000000      1.00000000      1.00000000      1.00000000      1.00000000      1.00000000      1.00000000      1.00000000      1.00000000      1.00000000      1.00000000      1.00000000      1.00000000      1.00000000      1.00000000      1.00000000      1.00000000      1.00000000      1.00000000
      1.00000000      1.00000000      1.00000000      1.00000000      1.00000000      1.00000000      1.00000000      1.00000000      1.00000000      1.00000000      1.00000000      1.00000000      1.00000000      1.00000000      1.00000000      1.00000000      1.00000000      1.00000000      1.00000000      1.00000000
      1.00000000      1.00000000      1.00000000      1.00000000</v>
    <i name="NUPDOWN">     -1.00000000</i>
    <i type="logical" name="LSORBIT"> F  </i>
    <v name="SAXIS">      0.00000000      0.00000000      1.00000000</v>
    <i type="logical" name="LSPIRAL"> F  </i>
    <v name="QSPIRAL">      0.00000000      0.00000000      0.00000000</v>
    <i type="logical" name="LZEROZ"> F  </i>
   </separator>
   <separator name="electronic exchange-correlation" >
    <i type="logical" name="LASPH"> F  </i>
    <i type="logical" name="LMETAGGA"> F  </i>
   </separator>
   <separator name="electronic convergence" >
    <i type="int" name="NELM">   200</i>
    <i type="int" name="NELMDL">     0</i>
    <i type="int" name="NELMIN">     2</i>
    <i name="ENINI">    500.00000000</i>
    <separator name="electronic convergence detail" >
     <i type="logical" name="LDIAG"> T  </i>
     <i type="logical" name="LSUBROT"> F  </i>
     <i name="WEIMIN">      0.00000000</i>
     <i name="EBREAK">      0.00000001</i>
     <i name="DEPER">      0.30000000</i>
     <i type="int" name="NRMM">     4</i>
     <i name="TIME">      0.40000000</i>
    </separator>
   </separator>
   <separator name="electronic mixer" >
    <i name="AMIX">      0.40000000</i>
    <i name="BMIX">      1.00000000</i>
    <i name="AMIN">      0.10000000</i>
    <i name="AMIX_MAG">      1.60000000</i>
    <i name="BMIX_MAG">      1.00000000</i>
    <separator name="electronic mixer details" >
     <i type="int" name="IMIX">     4</i>
     <i type="logical" name="MIXFIRST"> F  </i>
     <i type="int" name="MAXMIX">   -45</i>
     <i name="WC">    100.00000000</i>
     <i type="int" name="INIMIX">     1</i>
     <i type="int" name="MIXPRE">     1</i>
     <i type="int" name="MREMOVE">     5</i>
    </separator>
   </separator>
   <separator name="electronic dipolcorrection" >
    <i type="logical" name="LDIPOL"> F  </i>
    <i type="logical" name="LMONO"> F  </i>
    <i type="int" name="IDIPOL">     0</i>
    <i name="EPSILON">      1.00000000</i>
    <v name="DIPOL">   -100.00000000   -100.00000000   -100.00000000</v>
    <i name="EFIELD">      0.00000000</i>
   </separator>
  </separator>
  <separator name="grids" >
   <i type="int" name="NGX">   168</i>
   <i type="int" name="NGY">   168</i>
   <i type="int" name="NGZ">   150</i>
   <i type="int" name="NGXF">   250</i>
   <i type="int" name="NGYF">   250</i>
   <i type="int" name="NGZF">   224</i>
   <i type="logical" name="ADDGRID"> F  </i>
  </separator>
  <separator name="ionic" >
   <i type="int" name="NSW">     0</i>
   <i type="int" name="IBRION">    -1</i>
   <i type="int" name="MDALGO">     0</i>
   <i type="int" name="ISIF">     2</i>
   <i name="PSTRESS">      0.00000000</i>
   <i name="EDIFFG">     -0.01000000</i>
   <i type="int" name="NFREE">     0</i>
   <i name="POTIM">      0.30000000</i>
   <i name="SMASS">     -3.00000000</i>
   <i name="SCALEE">      1.00000000</i>
  </separator>
  <separator name="ionic md" >
   <i name="TEBEG">      0.00010000</i>
   <i name="TEEND">      0.00010000</i>
   <i type="int" name="NBLOCK">     1</i>
   <i type="int" name="KBLOCK">     1</i>
   <i type="int" name="NPACO">   256</i>
   <i name="APACO">     16.00000000</i>
  </separator>
  <separator name="symmetry" >
   <i type="int" name="ISYM">     2</i>
   <i name="SYMPREC">      0.00001000</i>
  </separator>
  <separator name="dos" >
   <i type="int" name="LORBIT">     0</i>
   <v name="RWIGS">     -1.00000000     -1.00000000     -1.00000000     -1.00000000</v>
   <i type="int" name="NEDOS">   301</i>
   <i name="EMIN">     10.00000000</i>
   <i name="EMAX">    -10.00000000</i>
   <i name="EFERMI">      0.00000000</i>
  </separator>
  <separator name="writing" >
   <i type="int" name="NWRITE">     0</i>
   <i type="logical" name="LWAVE"> F  </i>
   <i type="logical" name="LDOWNSAMPLE"> F  </i>
   <i type="logical" name="LCHARG"> F  </i>
   <i type="logical" name="LPARD"> F  </i>
   <i type="logical" name="LVTOT"> F  </i>
   <i type="logical" name="LVHAR"> F  </i>
   <i type="logical" name="LELF"> F  </i>
   <i type="logical" name="LOPTICS"> F  </i>
   <v name="STM">      0.00000000      0.00000000      0.00000000      0.00000000      0.00000000      0.00000000      0.00000000</v>
  </separator>
  <separator name="performance" >
   <i type="int" name="NPAR">    16</i>
   <i type="int" name="NSIM">     4</i>
   <i type="int" name="NBLK">    -1</i>
   <i type="logical" name="LPLANE"> T  </i>
   <i type="logical" name="LSCALAPACK"> T  </i>
   <i type="logical" name="LSCAAWARE"> F  </i>
   <i type="logical" name="LSCALU"> F  </i>
   <i type="logical" name="LASYNC"> F  </i>
   <i type="logical" name="LORBITALREAL"> F  </i>
  </separator>
  <separator name="miscellaneous" >
   <i type="int" name="IDIOT">     3</i>
   <i type="int" name="ISPECIAL">     0</i>
   <i type="logical" name="LMUSIC"> F  </i>
   <v name="POMASS">     12.01100000      1.00000000     16.00000000     14.00100000</v>
   <v name="DARWINR">      0.00000000      0.00000000      0.00000000      0.00000000</v>
   <v name="DARWINV">      1.00000000      1.00000000      1.00000000      1.00000000</v>
   <i type="logical" name="LCORR"> T  </i>
  </separator>
  <i type="logical" name="GGA_COMPAT"> T  </i>
  <i type="logical" name="LBERRY"> F  </i>
  <i type="int" name="ICORELEVEL">     0</i>
  <i type="logical" name="LDAU"> F  </i>
  <i type="int" name="I_CONSTRAINED_M">     0</i>
  <separator name="electronic exchange-correlation" >
   <i type="string" name="GGA">PE</i>
   <i type="int" name="VOSKOWN">     0</i>
   <i type="logical" name="LHFCALC"> F  </i>
   <i type="string" name="PRECFOCK"></i>
   <i type="logical" name="LSYMGRAD"> F  </i>
   <i type="logical" name="LHFONE"> F  </i>
   <i type="logical" name="LRHFCALC"> F  </i>
   <i type="logical" name="LTHOMAS"> F  </i>
   <i type="logical" name="LMODELHF"> F  </i>
   <i name="ENCUT4O">     -1.00000000</i>
   <i type="int" name="EXXOEP">     0</i>
   <i type="int" name="FOURORBIT">     0</i>
   <i name="AEXX">      0.00000000</i>
   <i name="HFALPHA">      0.00000000</i>
   <i name="MCALPHA">      0.00000000</i>
   <i name="ALDAX">      1.00000000</i>
   <i name="AGGAX">      1.00000000</i>
   <i name="ALDAC">      1.00000000</i>
   <i name="AGGAC">      1.00000000</i>
   <i type="int" name="NKREDX">     1</i>
   <i type="int" name="NKREDY">     1</i>
   <i type="int" name="NKREDZ">     1</i>
   <i type="logical" name="SHIFTRED"> F  </i>
   <i type="logical" name="ODDONLY"> F  </i>
   <i type="logical" name="EVENONLY"> F  </i>
   <i type="int" name="LMAXFOCK">     0</i>
   <i type="int" name="NMAXFOCKAE">     0</i>
   <i type="logical" name="LFOCKAEDFT"> F  </i>
   <i name="HFSCREEN">      0.00000000</i>
   <i name="HFSCREENC">      0.00000000</i>
   <i type="int" name="NBANDSGWLOW">     0</i>
  </separator>
  <separator name="vdW DFT" >
   <i type="logical" name="LUSE_VDW"> F  </i>
   <i name="Zab_VDW">     -0.84910000</i>
   <i name="PARAM1">      0.12340000</i>
   <i name="PARAM2">      1.00000000</i>
   <i name="PARAM3">      0.00000000</i>
  </separator>
  <separator name="model GW" >
   <i type="int" name="MODEL_GW">     0</i>
   <i name="MODEL_EPS0">     61.90047689</i>
   <i name="MODEL_ALPHA">      1.00000000</i>
  </separator>
  <separator name="linear response parameters" >
   <i type="logical" name="LEPSILON"> F  </i>
   <i type="logical" name="LRPA"> F  </i>
   <i type="logical" name="LNABLA"> F  </i>
   <i type="logical" name="LVEL"> F  </i>
   <i type="int" name="KINTER">     0</i>
   <i name="CSHIFT">      0.10000000</i>
   <i name="OMEGAMAX">     -1.00000000</i>
   <i name="DEG_THRESHOLD">      0.00200000</i>
   <i name="RTIME">     -0.10000000</i>
   <i name="WPLASMAI">      0.00000000</i>
   <v name="DFIELD">      0.00000000      0.00000000      0.00000000</v>
   <v name="WPLASMA">      0.00000000      0.00000000      0.00000000      0.00000000      0.00000000      0.00000000      0.00000000      0.00000000      0.00000000</v>
  </separator>
  <separator name="orbital magnetization" >
   <i type="logical" name="NUCIND"> F  </i>
   <v name="MAGPOS">      0.00000000      0.00000000      0.00000000</v>
   <i type="logical" name="LNICSALL"> T  </i>
   <i type="logical" name="ORBITALMAG"> F  </i>
   <i type="logical" name="LMAGBLOCH"> F  </i>
   <i type="logical" name="LCHIMAG"> F  </i>
   <i type="logical" name="LGAUGE"> T  </i>
   <i type="int" name="MAGATOM">     0</i>
   <v name="MAGDIPOL">      0.00000000      0.00000000      0.00000000</v>
   <v name="AVECCONST">      0.00000000      0.00000000      0.00000000</v>
  </separator>
  <separator name="response functions" >
   <i type="logical" name="LADDER"> F  </i>
   <i type="logical" name="LRPAFORCE"> F  </i>
   <i type="logical" name="LFXC"> F  </i>
   <i type="logical" name="LHARTREE"> T  </i>
   <i type="int" name="IBSE">     0</i>
   <v type="int" name="KPOINT">    -1     0     0     0</v>
   <i type="logical" name="LTCTE"> F  </i>
   <i type="logical" name="LTETE"> F  </i>
   <i type="logical" name="LTRIPLET"> F  </i>
   <i type="logical" name="LFXCEPS"> F  </i>
   <i type="logical" name="LFXHEG"> F  </i>
   <i type="int" name="NATURALO">     2</i>
   <i type="logical" name="L2ORDER"> F  </i>
   <i type="logical" name="LMP2LT"> F  </i>
   <i type="logical" name="LUSEW"> F  </i>
   <i name="ENCUTGW">     -2.00000000</i>
   <i name="ENCUTGWSOFT">     -2.00000000</i>
   <i name="ENCUTLF">     -1.00000000</i>
   <i type="int" name="LMAXMP2">    -1</i>
   <i name="SCISSOR">      0.00000000</i>
   <i type="int" name="NOMEGA">     0</i>
   <i type="int" name="NOMEGAR">     0</i>
   <i type="int" name="NBANDSGW">    -1</i>
   <i type="int" name="NBANDSO">    -1</i>
   <i type="int" name="NBANDSV">    -1</i>
   <i type="int" name="NELM">   200</i>
   <i type="int" name="NELMHF">     1</i>
   <i type="int" name="DIM">     3</i>
   <i type="int" name="ANTIRES">     0</i>
   <i name="OMEGAMAX">    -30.00000000</i>
   <i name="OMEGAMIN">    -30.00000000</i>
   <i name="OMEGATL">   -200.00000000</i>
   <i type="int" name="OMEGAGRID">   140</i>
   <i name="CSHIFT">     -0.10000000</i>
   <i type="logical" name="SELFENERGY"> F  </i>
   <i type="logical" name="LSPECTRAL"> F  </i>
   <i type="logical" name="LSPECTRALGW"> F  </i>
   <i type="logical" name="LSINGLES"> F  </i>
   <i type="logical" name="LFERMIGW"> F  </i>
   <i type="logical" name="ODDONLYGW"> F  </i>
   <i type="logical" name="EVENONLYGW"> F  </i>
   <i type="int" name="NKREDLFX">     1</i>
   <i type="int" name="NKREDLFY">     1</i>
   <i type="int" name="NKREDLFZ">     1</i>
   <i type="int" name="MAXMEM">  2800</i>
   <i type="int" name="TELESCOPE">     0</i>
   <i type="int" name="TAUPAR">     1</i>
   <i type="int" name="OMEGAPAR">    -1</i>
   <i name="LAMBDA">      1.00000000</i>
  </separator>
  <separator name="External order field" >
   <i name="OFIELD_KAPPA">      0.00000000</i>
   <v name="OFIELD_K">      0.00000000      0.00000000      0.00000000</v>
   <i name="OFIELD_Q6_NEAR">      0.00000000</i>
   <i name="OFIELD_Q6_FAR">      0.00000000</i>
   <i name="OFIELD_A">      0.00000000</i>
  </separator>
  <separator name="solvation model" >
   <i type="logical" name="LSOL"> F  </i>
  </separator>
 </parameters>
 <atominfo>
  <atoms>      84 </atoms>
  <types>       4 </types>
  <array name="atoms" >
   <dimension dim="1">ion</dimension>
   <field type="string">element</field>
   <field type="int">atomtype</field>
   <set>
    <rc><c>C </c><c>   1</c></rc>
    <rc><c>C </c><c>   1</c></rc>
    <rc><c>C </c><c>   1</c></rc>
    <rc><c>C </c><c>   1</c></rc>
    <rc><c>C </c><c>   1</c></rc>
    <rc><c>C </c><c>   1</c></rc>
    <rc><c>C </c><c>   1</c></rc>
    <rc><c>C </c><c>   1</c></rc>
    <rc><c>C </c><c>   1</c></rc>
    <rc><c>C </c><c>   1</c></rc>
    <rc><c>C </c><c>   1</c></rc>
    <rc><c>C </c><c>   1</c></rc>
    <rc><c>C </c><c>   1</c></rc>
    <rc><c>C </c><c>   1</c></rc>
    <rc><c>C </c><c>   1</c></rc>
    <rc><c>C </c><c>   1</c></rc>
    <rc><c>C </c><c>   1</c></rc>
    <rc><c>C </c><c>   1</c></rc>
    <rc><c>C </c><c>   1</c></rc>
    <rc><c>C </c><c>   1</c></rc>
    <rc><c>C </c><c>   1</c></rc>
    <rc><c>C </c><c>   1</c></rc>
    <rc><c>C </c><c>   1</c></rc>
    <rc><c>C </c><c>   1</c></rc>
    <rc><c>C </c><c>   1</c></rc>
    <rc><c>C </c><c>   1</c></rc>
    <rc><c>C </c><c>   1</c></rc>
    <rc><c>C </c><c>   1</c></rc>
    <rc><c>C </c><c>   1</c></rc>
    <rc><c>C </c><c>   1</c></rc>
    <rc><c>C </c><c>   1</c></rc>
    <rc><c>C </c><c>   1</c></rc>
    <rc><c>C </c><c>   1</c></rc>
    <rc><c>C </c><c>   1</c></rc>
    <rc><c>C </c><c>   1</c></rc>
    <rc><c>C </c><c>   1</c></rc>
    <rc><c>C </c><c>   1</c></rc>
    <rc><c>C </c><c>   1</c></rc>
    <rc><c>C </c><c>   1</c></rc>
    <rc><c>C </c><c>   1</c></rc>
    <rc><c>C </c><c>   1</c></rc>
    <rc><c>C </c><c>   1</c></rc>
    <rc><c>H </c><c>   2</c></rc>
    <rc><c>H </c><c>   2</c></rc>
    <rc><c>H </c><c>   2</c></rc>
    <rc><c>H </c><c>   2</c></rc>
    <rc><c>H </c><c>   2</c></rc>
    <rc><c>H </c><c>   2</c></rc>
    <rc><c>H </c><c>   2</c></rc>
    <rc><c>H </c><c>   2</c></rc>
    <rc><c>H </c><c>   2</c></rc>
    <rc><c>H </c><c>   2</c></rc>
    <rc><c>H </c><c>   2</c></rc>
    <rc><c>H </c><c>   2</c></rc>
    <rc><c>H </c><c>   2</c></rc>
    <rc><c>H </c><c>   2</c></rc>
    <rc><c>H </c><c>   2</c></rc>
    <rc><c>H </c><c>   2</c></rc>
    <rc><c>H </c><c>   2</c></rc>
    <rc><c>H </c><c>   2</c></rc>
    <rc><c>O </c><c>   3</c></rc>
    <rc><c>O </c><c>   3</c></rc>
    <rc><c>O </c><c>   3</c></rc>
    <rc><c>O </c><c>   3</c></rc>
    <rc><c>O </c><c>   3</c></rc>
    <rc><c>O </c><c>   3</c></rc>
    <rc><c>O </c><c>   3</c></rc>
    <rc><c>O </c><c>   3</c></rc>
    <rc><c>O </c><c>   3</c></rc>
    <rc><c>O </c><c>   3</c></rc>
    <rc><c>O </c><c>   3</c></rc>
    <rc><c>O </c><c>   3</c></rc>
    <rc><c>N </c><c>   4</c></rc>
    <rc><c>N </c><c>   4</c></rc>
    <rc><c>N </c><c>   4</c></rc>
    <rc><c>N </c><c>   4</c></rc>
    <rc><c>N </c><c>   4</c></rc>
    <rc><c>N </c><c>   4</c></rc>
    <rc><c>N </c><c>   4</c></rc>
    <rc><c>N </c><c>   4</c></rc>
    <rc><c>N </c><c>   4</c></rc>
    <rc><c>N </c><c>   4</c></rc>
    <rc><c>N </c><c>   4</c></rc>
    <rc><c>N </c><c>   4</c></rc>
   </set>
  </array>
  <array name="atomtypes" >
   <dimension dim="1">type</dimension>
   <field type="int">atomspertype</field>
   <field type="string">element</field>
   <field>mass</field>
   <field>valence</field>
   <field type="string">pseudopotential</field>
   <set>
    <rc><c>  42</c><c>C </c><c>     12.01100000</c><c>      4.00000000</c><c>  PAW_PBE C 08Apr2002                   </c></rc>
    <rc><c>  18</c><c>H </c><c>      1.00000000</c><c>      1.00000000</c><c>  PAW_PBE H 15Jun2001                   </c></rc>
    <rc><c>  12</c><c>O </c><c>     16.00000000</c><c>      6.00000000</c><c>  PAW_PBE O 08Apr2002                   </c></rc>
    <rc><c>  12</c><c>N </c><c>     14.00100000</c><c>      5.00000000</c><c>  PAW_PBE N 08Apr2002                   </c></rc>
   </set>
  </array>
 </atominfo>
 <structure name="initialpos" >
  <crystal>
   <varray name="basis" >
    <v>      22.38533608       0.00270243       0.00000000 </v>
    <v>     -11.19035515      19.35521967       0.00000000 </v>
    <v>       0.00000000       0.00000000      20.00000000 </v>
   </varray>
   <i name="volume">   8666.06676502 </i>
   <varray name="rec_basis" >
    <v>       0.04466898       0.02582568       0.00000000 </v>
    <v>      -0.00000624       0.05166204       0.00000000 </v>
    <v>       0.00000000       0.00000000       0.05000000 </v>
   </varray>
  </crystal>
  <varray name="positions" >
   <v>       0.35283650       0.61735622       0.44211959 </v>
   <v>       0.28208427       0.59467154       0.44240022 </v>
   <v>       0.25865842       0.64200194       0.44324402 </v>
   <v>       0.30678027       0.71284701       0.44325831 </v>
   <v>       0.40009517       0.68817175       0.44214228 </v>
   <v>       0.37208333       0.56213426       0.44795513 </v>
   <v>       0.18437236       0.62287924       0.45011180 </v>
   <v>       0.64008385       0.38041801       0.55307742 </v>
   <v>       0.71079740       0.40293719       0.55281895 </v>
   <v>       0.73408599       0.35549577       0.55281677 </v>
   <v>       0.68583132       0.28469144       0.55352797 </v>
   <v>       0.59267945       0.30961894       0.55392888 </v>
   <v>       0.62118499       0.43585777       0.54659649 </v>
   <v>       0.80836070       0.37443821       0.54632021 </v>
   <v>       0.53979657       0.07176182       0.51930828 </v>
   <v>       0.54060691       0.01623389       0.54999785 </v>
   <v>       0.49930190       0.94593891       0.53238484 </v>
   <v>       0.55830329       0.95083272       0.61752304 </v>
   <v>       0.52608321       0.45560242       0.51770780 </v>
   <v>       0.46954792       0.45446723       0.54816395 </v>
   <v>       0.44055924       0.49568704       0.53049629 </v>
   <v>       0.38609318       0.43619414       0.61534200 </v>
   <v>       0.92343508       0.46952007       0.51804181 </v>
   <v>       0.97881966       0.52558276       0.54917477 </v>
   <v>       0.04911548       0.55415422       0.53216814 </v>
   <v>       0.04392870       0.60827743       0.61722416 </v>
   <v>       0.37749668       0.73633580       0.44303083 </v>
   <v>       0.43282846       0.81068627       0.44983567 </v>
   <v>       0.61513743       0.26131940       0.55384288 </v>
   <v>       0.55975264       0.18682908       0.54818523 </v>
   <v>       0.45242494       0.92563761       0.47875598 </v>
   <v>       0.45144168       0.98112359       0.44819536 </v>
   <v>       0.49281410       0.05142069       0.46574144 </v>
   <v>       0.43358937       0.04643696       0.38071894 </v>
   <v>       0.46739414       0.54284366       0.47704117 </v>
   <v>       0.52403351       0.54412384       0.44669696 </v>
   <v>       0.55293782       0.50279102       0.46426329 </v>
   <v>       0.60752528       0.56250743       0.37955060 </v>
   <v>       0.06955857       0.52751261       0.47868653 </v>
   <v>       0.01420780       0.47130880       0.44768602 </v>
   <v>       0.94391043       0.44279754       0.46464033 </v>
   <v>       0.94913454       0.38849953       0.37973503 </v>
   <v>       0.28520566       0.74706751       0.44581432 </v>
   <v>       0.45590558       0.70982991       0.44375424 </v>
   <v>       0.24786582       0.53879221       0.44417367 </v>
   <v>       0.70730238       0.25035579       0.55159701 </v>
   <v>       0.53687741       0.28809011       0.55252622 </v>
   <v>       0.74509717       0.45878276       0.55040804 </v>
   <v>       0.58280199       0.94135622       0.65985997 </v>
   <v>       0.63287693       0.15568796       0.54849928 </v>
   <v>       0.35190687       0.41139522       0.65749212 </v>
   <v>       0.51693642       0.36266381       0.54751860 </v>
   <v>       0.05323279       0.64220219       0.65960335 </v>
   <v>       0.83983119       0.47887133       0.54780748 </v>
   <v>       0.40900265       0.05589184       0.33843260 </v>
   <v>       0.35994635       0.84204301       0.44797177 </v>
   <v>       0.64176031       0.58741089       0.33745493 </v>
   <v>       0.47626452       0.63569450       0.44739963 </v>
   <v>       0.93985533       0.35448403       0.33744289 </v>
   <v>       0.15326034       0.51854701       0.44861570 </v>
   <v>       0.49450803       0.82846411       0.44958734 </v>
   <v>       0.32844216       0.50028056       0.44693785 </v>
   <v>       0.16644663       0.66671480       0.44983851 </v>
   <v>       0.49804036       0.16886102       0.54952433 </v>
   <v>       0.66509502       0.49763772       0.54708376 </v>
   <v>       0.82615849       0.33050578       0.54693045 </v>
   <v>       0.57938957       0.01943550       0.60497724 </v>
   <v>       0.43378229       0.41539899       0.60297729 </v>
   <v>       0.97540089       0.56118403       0.60407387 </v>
   <v>       0.41246723       0.97782212       0.39332503 </v>
   <v>       0.55993820       0.58341378       0.39204729 </v>
   <v>       0.01764950       0.43556717       0.39291668 </v>
   <v>       0.51203019       0.90614090       0.57762152 </v>
   <v>       0.58281173       0.14047666       0.53872902 </v>
   <v>       0.38777315       0.48257446       0.57550829 </v>
   <v>       0.55177283       0.41273423       0.53740608 </v>
   <v>       0.08872608       0.60639867       0.57777131 </v>
   <v>       0.85475094       0.44393729       0.53709074 </v>
   <v>       0.48001832       0.09116406       0.42049160 </v>
   <v>       0.40969868       0.85702320       0.45906359 </v>
   <v>       0.60569586       0.51593620       0.41920796 </v>
   <v>       0.44154446       0.58555045       0.45732942 </v>
   <v>       0.90433379       0.39051340       0.41908582 </v>
   <v>       0.13819182       0.55334831       0.45938644 </v>
  </varray>
 </structure>
 <calculation>
  <scstep>
   <time name="dav">  289.54  292.85</time>
   <time name="total">  289.67  293.00</time>
   <energy>
    <i name="alphaZ">     52.94665803 </i>
    <i name="ewald">  37688.33654196 </i>
    <i name="hartreedc"> -49968.29788762 </i>
    <i name="XCdc">   1212.59960933 </i>
    <i name="pawpsdc">  30237.48647376 </i>
    <i name="pawaedc"> -30307.32197329 </i>
    <i name="eentropy">     -0.00000000 </i>
    <i name="bandstr">  -4304.12811333 </i>
    <i name="atom">  14767.68485670 </i>
    <i name="e_fr_energy">   -620.69383447 </i>
    <i name="e_wo_entrp">   -620.69383447 </i>
    <i name="e_0_energy">   -620.69383447 </i>
   </energy>
  </scstep>
  <scstep>
   <time name="dav">  332.68  336.58</time>
   <time name="total">  332.68  336.59</time>
   <energy>
    <i name="e_fr_energy">   -621.52555453 </i>
    <i name="e_wo_entrp">   -621.52555453 </i>
    <i name="e_0_energy">   -621.52555453 </i>
   </energy>
  </scstep>
  <scstep>
   <time name="dav">  376.71  380.91</time>
   <time name="total">  376.71  380.91</time>
   <energy>
    <i name="e_fr_energy">   -621.54540809 </i>
    <i name="e_wo_entrp">   -621.54540809 </i>
    <i name="e_0_energy">   -621.54540809 </i>
   </energy>
  </scstep>
  <scstep>
   <time name="dav">  330.16  333.71</time>
   <time name="total">  330.17  333.71</time>
   <energy>
    <i name="e_fr_energy">   -621.54578203 </i>
    <i name="e_wo_entrp">   -621.54578203 </i>
    <i name="e_0_energy">   -621.54578203 </i>
   </energy>
  </scstep>
  <scstep>
   <time name="dav">  308.97  312.26</time>
   <time name="total">  308.97  312.26</time>
   <energy>
    <i name="e_fr_energy">   -621.54579756 </i>
    <i name="e_wo_entrp">   -621.54579756 </i>
    <i name="e_0_energy">   -621.54579756 </i>
   </energy>
  </scstep>
  <scstep>
   <time name="dav">  254.39  257.09</time>
   <time name="total">  254.39  257.09</time>
   <energy>
    <i name="alphaZ">     52.94665803 </i>
    <i name="ewald">  37688.33654196 </i>
    <i name="hartreedc"> -49968.29788762 </i>
    <i name="XCdc">   1212.59960933 </i>
    <i name="pawpsdc">  30237.48647376 </i>
    <i name="pawaedc"> -30307.32197329 </i>
    <i name="eentropy">     -0.00000000 </i>
    <i name="bandstr">  -4304.98007696 </i>
    <i name="atom">  14767.68485670 </i>
    <i name="e_fr_energy">   -621.54579809 </i>
    <i name="e_wo_entrp">   -621.54579809 </i>
    <i name="e_0_energy">   -621.54579809 </i>
   </energy>
  </scstep>
  <structure>
   <crystal>
    <varray name="basis" >
     <v>      22.38533608       0.00270243       0.00000000 </v>
     <v>     -11.19035515      19.35521967       0.00000000 </v>
     <v>       0.00000000       0.00000000      20.00000000 </v>
    </varray>
    <i name="volume">   8666.06676502 </i>
    <varray name="rec_basis" >
     <v>       0.04466898       0.02582568       0.00000000 </v>
     <v>      -0.00000624       0.05166204       0.00000000 </v>
     <v>       0.00000000       0.00000000       0.05000000 </v>
    </varray>
   </crystal>
   <varray name="positions" >
    <v>       0.35283650       0.61735622       0.44211959 </v>
    <v>       0.28208427       0.59467154       0.44240022 </v>
    <v>       0.25865842       0.64200194       0.44324402 </v>
    <v>       0.30678027       0.71284701       0.44325831 </v>
    <v>       0.40009517       0.68817175       0.44214228 </v>
    <v>       0.37208333       0.56213426       0.44795513 </v>
    <v>       0.18437236       0.62287924       0.45011180 </v>
    <v>       0.64008385       0.38041801       0.55307742 </v>
    <v>       0.71079740       0.40293719       0.55281895 </v>
    <v>       0.73408599       0.35549577       0.55281677 </v>
    <v>       0.68583132       0.28469144       0.55352797 </v>
    <v>       0.59267945       0.30961894       0.55392888 </v>
    <v>       0.62118499       0.43585777       0.54659649 </v>
    <v>       0.80836070       0.37443821       0.54632021 </v>
    <v>       0.53979657       0.07176182       0.51930828 </v>
    <v>       0.54060691       0.01623389       0.54999785 </v>
    <v>       0.49930190       0.94593891       0.53238484 </v>
    <v>       0.55830329       0.95083272       0.61752304 </v>
    <v>       0.52608321       0.45560242       0.51770780 </v>
    <v>       0.46954792       0.45446723       0.54816395 </v>
    <v>       0.44055924       0.49568704       0.53049629 </v>
    <v>       0.38609318       0.43619414       0.61534200 </v>
    <v>       0.92343508       0.46952007       0.51804181 </v>
    <v>       0.97881966       0.52558276       0.54917477 </v>
    <v>       0.04911548       0.55415422       0.53216814 </v>
    <v>       0.04392870       0.60827743       0.61722416 </v>
    <v>       0.37749668       0.73633580       0.44303083 </v>
    <v>       0.43282846       0.81068627       0.44983567 </v>
    <v>       0.61513743       0.26131940       0.55384288 </v>
    <v>       0.55975264       0.18682908       0.54818523 </v>
    <v>       0.45242494       0.92563761       0.47875598 </v>
    <v>       0.45144168       0.98112359       0.44819536 </v>
    <v>       0.49281410       0.05142069       0.46574144 </v>
    <v>       0.43358937       0.04643696       0.38071894 </v>
    <v>       0.46739414       0.54284366       0.47704117 </v>
    <v>       0.52403351       0.54412384       0.44669696 </v>
    <v>       0.55293782       0.50279102       0.46426329 </v>
    <v>       0.60752528       0.56250743       0.37955060 </v>
    <v>       0.06955857       0.52751261       0.47868653 </v>
    <v>       0.01420780       0.47130880       0.44768602 </v>
    <v>       0.94391043       0.44279754       0.46464033 </v>
    <v>       0.94913454       0.38849953       0.37973503 </v>
    <v>       0.28520566       0.74706751       0.44581432 </v>
    <v>       0.45590558       0.70982991       0.44375424 </v>
    <v>       0.24786582       0.53879221       0.44417367 </v>
    <v>       0.70730238       0.25035579       0.55159701 </v>
    <v>       0.53687741       0.28809011       0.55252622 </v>
    <v>       0.74509717       0.45878276       0.55040804 </v>
    <v>       0.58280199       0.94135622       0.65985997 </v>
    <v>       0.63287693       0.15568796       0.54849928 </v>
    <v>       0.35190687       0.41139522       0.65749212 </v>
    <v>       0.51693642       0.36266381       0.54751860 </v>
    <v>       0.05323279       0.64220219       0.65960335 </v>
    <v>       0.83983119       0.47887133       0.54780748 </v>
    <v>       0.40900265       0.05589184       0.33843260 </v>
    <v>       0.35994635       0.84204301       0.44797177 </v>
    <v>       0.64176031       0.58741089       0.33745493 </v>
    <v>       0.47626452       0.63569450       0.44739963 </v>
    <v>       0.93985533       0.35448403       0.33744289 </v>
    <v>       0.15326034       0.51854701       0.44861570 </v>
    <v>       0.49450803       0.82846411       0.44958734 </v>
    <v>       0.32844216       0.50028056       0.44693785 </v>
    <v>       0.16644663       0.66671480       0.44983851 </v>
    <v>       0.49804036       0.16886102       0.54952433 </v>
    <v>       0.66509502       0.49763772       0.54708376 </v>
    <v>       0.82615849       0.33050578       0.54693045 </v>
    <v>       0.57938957       0.01943550       0.60497724 </v>
    <v>       0.43378229       0.41539899       0.60297729 </v>
    <v>       0.97540089       0.56118403       0.60407387 </v>
    <v>       0.41246723       0.97782212       0.39332503 </v>
    <v>       0.55993820       0.58341378       0.39204729 </v>
    <v>       0.01764950       0.43556717       0.39291668 </v>
    <v>       0.51203019       0.90614090       0.57762152 </v>
    <v>       0.58281173       0.14047666       0.53872902 </v>
    <v>       0.38777315       0.48257446       0.57550829 </v>
    <v>       0.55177283       0.41273423       0.53740608 </v>
    <v>       0.08872608       0.60639867       0.57777131 </v>
    <v>       0.85475094       0.44393729       0.53709074 </v>
    <v>       0.48001832       0.09116406       0.42049160 </v>
    <v>       0.40969868       0.85702320       0.45906359 </v>
    <v>       0.60569586       0.51593620       0.41920796 </v>
    <v>       0.44154446       0.58555045       0.45732942 </v>
    <v>       0.90433379       0.39051340       0.41908582 </v>
    <v>       0.13819182       0.55334831       0.45938644 </v>
   </varray>
  </structure>
  <varray name="forces" >
   <v>       0.00206770      -0.00260776      -0.00041722 </v>
   <v>       0.00346170       0.00065576       0.00039843 </v>
   <v>       0.00041847       0.00098920      -0.00122449 </v>
   <v>       0.00076923      -0.00108954       0.00500518 </v>
   <v>      -0.00055501      -0.00136755       0.00084477 </v>
   <v>       0.00148502       0.00265135       0.00360827 </v>
   <v>       0.00009962      -0.00051837      -0.00017640 </v>
   <v>       0.00030521      -0.00229090       0.00183745 </v>
   <v>       0.00242557       0.00020508      -0.00061766 </v>
   <v>       0.00130335       0.00211351      -0.00105578 </v>
   <v>       0.00427687       0.00219057      -0.00466270 </v>
   <v>       0.00064547       0.00173304      -0.00168960 </v>
   <v>      -0.00136898      -0.00112422      -0.00512570 </v>
   <v>       0.00198581      -0.00077381       0.00044697 </v>
   <v>       0.00211334       0.00124648       0.00056571 </v>
   <v>       0.00288746      -0.00056612       0.00280693 </v>
   <v>       0.00096899       0.00020358       0.00036829 </v>
   <v>       0.00133106      -0.00286153      -0.00343745 </v>
   <v>      -0.00059405      -0.00009252       0.00136723 </v>
   <v>       0.00159208       0.00166053       0.00094143 </v>
   <v>       0.00040663      -0.00148594      -0.00291990 </v>
   <v>      -0.00191242      -0.00127991      -0.00046904 </v>
   <v>      -0.00116291      -0.00003860      -0.00198288 </v>
   <v>      -0.00099593       0.00054380      -0.00225149 </v>
   <v>      -0.00059316       0.00048050       0.00332184 </v>
   <v>      -0.00243767      -0.00023256       0.00143113 </v>
   <v>       0.00079541       0.00150116       0.00052284 </v>
   <v>       0.00170927       0.00023427      -0.00121608 </v>
   <v>      -0.00354978      -0.00141918      -0.00179551 </v>
   <v>       0.00307069       0.00285632       0.00181110 </v>
   <v>      -0.00084931      -0.00157121      -0.00062158 </v>
   <v>      -0.00369791       0.00230009      -0.00133148 </v>
   <v>       0.00093770      -0.00066756      -0.00366296 </v>
   <v>      -0.00062031       0.00217965       0.00121755 </v>
   <v>       0.00363282      -0.00250729       0.00011489 </v>
   <v>      -0.00277429      -0.00229271       0.00099534 </v>
   <v>      -0.00354108       0.00112995       0.00059702 </v>
   <v>      -0.00041698       0.00280718      -0.00239235 </v>
   <v>      -0.00277387      -0.00146399       0.00089592 </v>
   <v>      -0.00085588       0.00030910       0.00389310 </v>
   <v>      -0.00525522       0.00044421       0.00067547 </v>
   <v>      -0.00344123       0.00178714       0.00515762 </v>
   <v>       0.00038346       0.00011991       0.00179804 </v>
   <v>       0.00063956      -0.00053196       0.00174865 </v>
   <v>       0.00069076      -0.00166259      -0.00069095 </v>
   <v>      -0.00147576       0.00036717       0.00173167 </v>
   <v>      -0.00060679      -0.00077604      -0.00313534 </v>
   <v>       0.00146873      -0.00172325      -0.00228761 </v>
   <v>       0.00198769       0.00248999       0.00086354 </v>
   <v>       0.00013662       0.00303136      -0.00011079 </v>
   <v>       0.00183400      -0.00246074       0.00239221 </v>
   <v>      -0.00191468      -0.00071853       0.00266412 </v>
   <v>      -0.00145595       0.00023994       0.00035941 </v>
   <v>       0.00245532      -0.00017859      -0.00392906 </v>
   <v>       0.00054864      -0.00407442       0.00279080 </v>
   <v>      -0.00205118      -0.00224284       0.00017509 </v>
   <v>       0.00034431       0.00079888      -0.00041782 </v>
   <v>      -0.00058907       0.00147969      -0.00025245 </v>
   <v>       0.00007936      -0.00262911      -0.00352799 </v>
   <v>       0.00439933      -0.00273049      -0.00030847 </v>
   <v>      -0.00073880       0.00093075      -0.00056658 </v>
   <v>      -0.00083825      -0.00282030      -0.00097913 </v>
   <v>      -0.00033606       0.00105377       0.00177776 </v>
   <v>      -0.00803437       0.00000722      -0.00207229 </v>
   <v>      -0.00267974       0.00056308       0.00139314 </v>
   <v>      -0.00062497      -0.00145365      -0.00289413 </v>
   <v>       0.00362930       0.00598046       0.00002076 </v>
   <v>       0.00097050      -0.00086346      -0.00022764 </v>
   <v>       0.00097486      -0.00269672      -0.00098465 </v>
   <v>      -0.00338528       0.00137334      -0.00053189 </v>
   <v>       0.00136367       0.00354545       0.00253298 </v>
   <v>       0.00195394       0.00335226       0.00308592 </v>
   <v>       0.00162252       0.00066275       0.00276065 </v>
   <v>       0.00090054      -0.00232140       0.00168379 </v>
   <v>      -0.00141781       0.00080378      -0.00246607 </v>
   <v>       0.00138188       0.00300675       0.00087166 </v>
   <v>       0.00141027       0.00024725      -0.00319869 </v>
   <v>      -0.00158882      -0.00151741      -0.00187349 </v>
   <v>       0.00104662      -0.00087532      -0.00031079 </v>
   <v>       0.00188469       0.00033791      -0.00123912 </v>
   <v>      -0.00078165      -0.00168365       0.00054416 </v>
   <v>      -0.00433933       0.00312457      -0.00064825 </v>
   <v>       0.00035258      -0.00400129       0.00014380 </v>
   <v>      -0.00089415       0.00047428       0.00154088 </v>
  </varray>
  <varray name="stress" >
   <v>       0.28729582       0.00786551       0.00917353 </v>
   <v>       0.00786551       0.27467027      -0.01407696 </v>
   <v>       0.00917353      -0.01407696      -0.25665680 </v>
  </varray>
  <energy>
   <i name="e_fr_energy">   -623.30797823 </i>
   <i name="e_wo_entrp">   -623.30797823 </i>
   <i name="e_0_energy">     -0.00000000 </i>
  </energy>
  <time name="totalsc"> 2234.67 2260.20</time>
  <eigenvalues>
   <array>
    <dimension dim="1">band</dimension>
    <dimension dim="2">kpoint</dimension>
    <dimension dim="3">spin</dimension>
    <field>eigene</field>
    <field>occ</field>
    <set>
     <set comment="spin 1">
      <set comment="kpoint 1">
       <r>  -28.2075    1.0000 </r>
       <r>  -28.2059    1.0000 </r>
       <r>  -28.2047    1.0000 </r>
       <r>  -28.1779    1.0000 </r>
       <r>  -28.1765    1.0000 </r>
       <r>  -28.1751    1.0000 </r>
       <r>  -25.8039    1.0000 </r>
       <r>  -25.7998    1.0000 </r>
       <r>  -25.7890    1.0000 </r>
       <r>  -25.7862    1.0000 </r>
       <r>  -25.7845    1.0000 </r>
       <r>  -25.7827    1.0000 </r>
       <r>  -23.5041    1.0000 </r>
       <r>  -23.4998    1.0000 </r>
       <r>  -23.4960    1.0000 </r>
       <r>  -23.4917    1.0000 </r>
       <r>  -23.4911    1.0000 </r>
       <r>  -23.4866    1.0000 </r>
       <r>  -23.0034    1.0000 </r>
       <r>  -23.0008    1.0000 </r>
       <r>  -23.0002    1.0000 </r>
       <r>  -22.8478    1.0000 </r>
       <r>  -22.8448    1.0000 </r>
       <r>  -22.8436    1.0000 </r>
       <r>  -21.6776    1.0000 </r>
       <r>  -21.6370    1.0000 </r>
       <r>  -20.9801    1.0000 </r>
       <r>  -20.9780    1.0000 </r>
       <r>  -20.8816    1.0000 </r>
       <r>  -19.4315    1.0000 </r>
       <r>  -19.4311    1.0000 </r>
       <r>  -19.1133    1.0000 </r>
       <r>  -19.1130    1.0000 </r>
       <r>  -18.8465    1.0000 </r>
       <r>  -18.6942    1.0000 </r>
       <r>  -18.6931    1.0000 </r>
       <r>  -18.4501    1.0000 </r>
       <r>  -18.2457    1.0000 </r>
       <r>  -18.2432    1.0000 </r>
       <r>  -16.8341    1.0000 </r>
       <r>  -16.7941    1.0000 </r>
       <r>  -16.7926    1.0000 </r>
       <r>  -16.3855    1.0000 </r>
       <r>  -16.3842    1.0000 </r>
       <r>  -16.3383    1.0000 </r>
       <r>  -15.9388    1.0000 </r>
       <r>  -15.9376    1.0000 </r>
       <r>  -15.5644    1.0000 </r>
       <r>  -15.5627    1.0000 </r>
       <r>  -15.4976    1.0000 </r>
       <r>  -15.4946    1.0000 </r>
       <r>  -14.8722    1.0000 </r>
       <r>  -14.8703    1.0000 </r>
       <r>  -14.6119    1.0000 </r>
       <r>  -14.6108    1.0000 </r>
       <r>  -14.5375    1.0000 </r>
       <r>  -14.5191    1.0000 </r>
       <r>  -14.5178    1.0000 </r>
       <r>  -14.3375    1.0000 </r>
       <r>  -14.2991    1.0000 </r>
       <r>  -14.1013    1.0000 </r>
       <r>  -14.1000    1.0000 </r>
       <r>  -13.7923    1.0000 </r>
       <r>  -13.7475    1.0000 </r>
       <r>  -13.7462    1.0000 </r>
       <r>  -13.4329    1.0000 </r>
       <r>  -13.1921    1.0000 </r>
       <r>  -13.1526    1.0000 </r>
       <r>  -13.1506    1.0000 </r>
       <r>  -12.8705    1.0000 </r>
       <r>  -12.8681    1.0000 </r>
       <r>  -12.7780    1.0000 </r>
       <r>  -12.7769    1.0000 </r>
       <r>  -12.6186    1.0000 </r>
       <r>  -12.6130    1.0000 </r>
       <r>  -11.9501    1.0000 </r>
       <r>  -11.9285    1.0000 </r>
       <r>  -11.7284    1.0000 </r>
       <r>  -11.7266    1.0000 </r>
       <r>  -11.6300    1.0000 </r>
       <r>  -11.4929    1.0000 </r>
       <r>  -11.4924    1.0000 </r>
       <r>  -11.4479    1.0000 </r>
       <r>  -11.3035    1.0000 </r>
       <r>  -11.3009    1.0000 </r>
       <r>  -11.2988    1.0000 </r>
       <r>  -11.1350    1.0000 </r>
       <r>  -11.1318    1.0000 </r>
       <r>  -11.0689    1.0000 </r>
       <r>  -11.0666    1.0000 </r>
       <r>  -11.0584    1.0000 </r>
       <r>  -10.9730    1.0000 </r>
       <r>  -10.8592    1.0000 </r>
       <r>  -10.8555    1.0000 </r>
       <r>  -10.8540    1.0000 </r>
       <r>  -10.5805    1.0000 </r>
       <r>  -10.4198    1.0000 </r>
       <r>  -10.4187    1.0000 </r>
       <r>  -10.3480    1.0000 </r>
       <r>  -10.1324    1.0000 </r>
       <r>   -9.9706    1.0000 </r>
       <r>   -9.9697    1.0000 </r>
       <r>   -9.9395    1.0000 </r>
       <r>   -9.9393    1.0000 </r>
       <r>   -9.8595    1.0000 </r>
       <r>   -9.8572    1.0000 </r>
       <r>   -9.8169    1.0000 </r>
       <r>   -9.8159    1.0000 </r>
       <r>   -9.7063    1.0000 </r>
       <r>   -9.6792    1.0000 </r>
       <r>   -9.5875    1.0000 </r>
       <r>   -9.4665    1.0000 </r>
       <r>   -9.4637    1.0000 </r>
       <r>   -9.2181    1.0000 </r>
       <r>   -9.2155    1.0000 </r>
       <r>   -9.1990    1.0000 </r>
       <r>   -8.7991    1.0000 </r>
       <r>   -8.7891    1.0000 </r>
       <r>   -8.7759    1.0000 </r>
       <r>   -8.7750    1.0000 </r>
       <r>   -8.7313    1.0000 </r>
       <r>   -8.7310    1.0000 </r>
       <r>   -8.4941    1.0000 </r>
       <r>   -8.4913    1.0000 </r>
       <r>   -8.4052    1.0000 </r>
       <r>   -8.4023    1.0000 </r>
       <r>   -8.3727    1.0000 </r>
       <r>   -8.3278    1.0000 </r>
       <r>   -7.6950    1.0000 </r>
       <r>   -7.6930    1.0000 </r>
       <r>   -7.6583    1.0000 </r>
       <r>   -6.9963    1.0000 </r>
       <r>   -6.9935    1.0000 </r>
       <r>   -6.9130    1.0000 </r>
       <r>   -6.8711    1.0000 </r>
       <r>   -6.8693    1.0000 </r>
       <r>   -6.8608    1.0000 </r>
       <r>   -6.7172    1.0000 </r>
       <r>   -6.7153    1.0000 </r>
       <r>   -6.6688    1.0000 </r>
       <r>   -6.5194    1.0000 </r>
       <r>   -6.5179    1.0000 </r>
       <r>   -6.4224    1.0000 </r>
       <r>   -6.4203    1.0000 </r>
       <r>   -6.2634    1.0000 </r>
       <r>   -6.2155    1.0000 </r>
       <r>   -6.2138    1.0000 </r>
       <r>   -5.9681    1.0000 </r>
       <r>   -5.8711    1.0000 </r>
       <r>   -5.8550    1.0000 </r>
       <r>   -5.8533    1.0000 </r>
       <r>   -5.6730    1.0000 </r>
       <r>   -5.6706    1.0000 </r>
       <r>   -5.6632    1.0000 </r>
       <r>   -5.5738    1.0000 </r>
       <r>   -5.5712    1.0000 </r>
       <r>   -5.0513    1.0000 </r>
       <r>   -5.0282    1.0000 </r>
       <r>   -5.0257    1.0000 </r>
       <r>   -2.4659    0.0000 </r>
       <r>   -2.4637    0.0000 </r>
       <r>   -2.2224    0.0000 </r>
       <r>   -2.2205    0.0000 </r>
       <r>   -2.0972    0.0000 </r>
       <r>   -1.7450    0.0000 </r>
       <r>   -1.7431    0.0000 </r>
       <r>   -1.1020    0.0000 </r>
       <r>   -1.0501    0.0000 </r>
       <r>   -0.6486    0.0000 </r>
       <r>   -0.6459    0.0000 </r>
       <r>   -0.6201    0.0000 </r>
       <r>   -0.6180    0.0000 </r>
       <r>   -0.5914    0.0000 </r>
       <r>   -0.3746    0.0000 </r>
       <r>   -0.3424    0.0000 </r>
       <r>   -0.1078    0.0000 </r>
       <r>   -0.0847    0.0000 </r>
       <r>   -0.0836    0.0000 </r>
       <r>    0.1278    0.0000 </r>
       <r>    0.1293    0.0000 </r>
       <r>    0.3273    0.0000 </r>
       <r>    0.3298    0.0000 </r>
       <r>    0.3466    0.0000 </r>
       <r>    0.4101    0.0000 </r>
       <r>    0.4476    0.0000 </r>
       <r>    0.5734    0.0000 </r>
       <r>    0.5750    0.0000 </r>
       <r>    0.5944    0.0000 </r>
       <r>    0.5970    0.0000 </r>
       <r>    0.6670    0.0000 </r>
       <r>    0.7669    0.0000 </r>
       <r>    0.7735    0.0000 </r>
       <r>    0.8190    0.0000 </r>
       <r>    0.8206    0.0000 </r>
       <r>    0.8626    0.0000 </r>
       <r>    0.8636    0.0000 </r>
       <r>    0.9504    0.0000 </r>
       <r>    0.9963    0.0000 </r>
       <r>    1.0018    0.0000 </r>
       <r>    1.0311    0.0000 </r>
       <r>    1.0504    0.0000 </r>
       <r>    1.1062    0.0000 </r>
       <r>    1.1316    0.0000 </r>
       <r>    1.1357    0.0000 </r>
       <r>    1.1865    0.0000 </r>
       <r>    1.1892    0.0000 </r>
       <r>    1.1902    0.0000 </r>
       <r>    1.2270    0.0000 </r>
      </set>
      <set comment="kpoint 2">
       <r>  -28.2075    1.0000 </r>
       <r>  -28.2059    1.0000 </r>
       <r>  -28.2047    1.0000 </r>
       <r>  -28.1779    1.0000 </r>
       <r>  -28.1765    1.0000 </r>
       <r>  -28.1751    1.0000 </r>
       <r>  -25.8039    1.0000 </r>
       <r>  -25.7998    1.0000 </r>
       <r>  -25.7890    1.0000 </r>
       <r>  -25.7862    1.0000 </r>
       <r>  -25.7845    1.0000 </r>
       <r>  -25.7827    1.0000 </r>
       <r>  -23.5041    1.0000 </r>
       <r>  -23.4998    1.0000 </r>
       <r>  -23.4961    1.0000 </r>
       <r>  -23.4917    1.0000 </r>
       <r>  -23.4911    1.0000 </r>
       <r>  -23.4866    1.0000 </r>
       <r>  -23.0034    1.0000 </r>
       <r>  -23.0008    1.0000 </r>
       <r>  -23.0002    1.0000 </r>
       <r>  -22.8478    1.0000 </r>
       <r>  -22.8448    1.0000 </r>
       <r>  -22.8436    1.0000 </r>
       <r>  -21.6776    1.0000 </r>
       <r>  -21.6370    1.0000 </r>
       <r>  -20.9800    1.0000 </r>
       <r>  -20.9779    1.0000 </r>
       <r>  -20.8817    1.0000 </r>
       <r>  -19.4315    1.0000 </r>
       <r>  -19.4308    1.0000 </r>
       <r>  -19.1142    1.0000 </r>
       <r>  -19.1130    1.0000 </r>
       <r>  -18.8458    1.0000 </r>
       <r>  -18.6942    1.0000 </r>
       <r>  -18.6931    1.0000 </r>
       <r>  -18.4498    1.0000 </r>
       <r>  -18.2458    1.0000 </r>
       <r>  -18.2434    1.0000 </r>
       <r>  -16.8340    1.0000 </r>
       <r>  -16.7941    1.0000 </r>
       <r>  -16.7926    1.0000 </r>
       <r>  -16.3855    1.0000 </r>
       <r>  -16.3842    1.0000 </r>
       <r>  -16.3385    1.0000 </r>
       <r>  -15.9386    1.0000 </r>
       <r>  -15.9372    1.0000 </r>
       <r>  -15.5649    1.0000 </r>
       <r>  -15.5630    1.0000 </r>
       <r>  -15.4976    1.0000 </r>
       <r>  -15.4946    1.0000 </r>
       <r>  -14.8718    1.0000 </r>
       <r>  -14.8700    1.0000 </r>
       <r>  -14.6119    1.0000 </r>
       <r>  -14.6109    1.0000 </r>
       <r>  -14.5375    1.0000 </r>
       <r>  -14.5191    1.0000 </r>
       <r>  -14.5178    1.0000 </r>
       <r>  -14.3372    1.0000 </r>
       <r>  -14.2988    1.0000 </r>
       <r>  -14.1014    1.0000 </r>
       <r>  -14.1001    1.0000 </r>
       <r>  -13.7980    1.0000 </r>
       <r>  -13.7469    1.0000 </r>
       <r>  -13.7413    1.0000 </r>
       <r>  -13.4331    1.0000 </r>
       <r>  -13.1920    1.0000 </r>
       <r>  -13.1526    1.0000 </r>
       <r>  -13.1507    1.0000 </r>
       <r>  -12.8706    1.0000 </r>
       <r>  -12.8680    1.0000 </r>
       <r>  -12.7780    1.0000 </r>
       <r>  -12.7770    1.0000 </r>
       <r>  -12.6186    1.0000 </r>
       <r>  -12.6130    1.0000 </r>
       <r>  -11.9501    1.0000 </r>
       <r>  -11.9286    1.0000 </r>
       <r>  -11.7284    1.0000 </r>
       <r>  -11.7265    1.0000 </r>
       <r>  -11.6302    1.0000 </r>
       <r>  -11.4928    1.0000 </r>
       <r>  -11.4923    1.0000 </r>
       <r>  -11.4479    1.0000 </r>
       <r>  -11.3035    1.0000 </r>
       <r>  -11.3009    1.0000 </r>
       <r>  -11.2988    1.0000 </r>
       <r>  -11.1350    1.0000 </r>
       <r>  -11.1318    1.0000 </r>
       <r>  -11.0691    1.0000 </r>
       <r>  -11.0672    1.0000 </r>
       <r>  -11.0575    1.0000 </r>
       <r>  -10.9731    1.0000 </r>
       <r>  -10.8592    1.0000 </r>
       <r>  -10.8555    1.0000 </r>
       <r>  -10.8539    1.0000 </r>
       <r>  -10.5804    1.0000 </r>
       <r>  -10.4203    1.0000 </r>
       <r>  -10.4191    1.0000 </r>
       <r>  -10.3470    1.0000 </r>
       <r>  -10.1327    1.0000 </r>
       <r>   -9.9706    1.0000 </r>
       <r>   -9.9696    1.0000 </r>
       <r>   -9.9395    1.0000 </r>
       <r>   -9.9393    1.0000 </r>
       <r>   -9.8595    1.0000 </r>
       <r>   -9.8572    1.0000 </r>
       <r>   -9.8170    1.0000 </r>
       <r>   -9.8159    1.0000 </r>
       <r>   -9.7063    1.0000 </r>
       <r>   -9.6792    1.0000 </r>
       <r>   -9.5873    1.0000 </r>
       <r>   -9.4666    1.0000 </r>
       <r>   -9.4638    1.0000 </r>
       <r>   -9.2180    1.0000 </r>
       <r>   -9.2155    1.0000 </r>
       <r>   -9.1990    1.0000 </r>
       <r>   -8.7992    1.0000 </r>
       <r>   -8.7895    1.0000 </r>
       <r>   -8.7758    1.0000 </r>
       <r>   -8.7747    1.0000 </r>
       <r>   -8.7313    1.0000 </r>
       <r>   -8.7310    1.0000 </r>
       <r>   -8.4941    1.0000 </r>
       <r>   -8.4912    1.0000 </r>
       <r>   -8.4053    1.0000 </r>
       <r>   -8.4025    1.0000 </r>
       <r>   -8.3723    1.0000 </r>
       <r>   -8.3278    1.0000 </r>
       <r>   -7.6950    1.0000 </r>
       <r>   -7.6930    1.0000 </r>
       <r>   -7.6584    1.0000 </r>
       <r>   -6.9963    1.0000 </r>
       <r>   -6.9935    1.0000 </r>
       <r>   -6.9132    1.0000 </r>
       <r>   -6.8711    1.0000 </r>
       <r>   -6.8693    1.0000 </r>
       <r>   -6.8608    1.0000 </r>
       <r>   -6.7172    1.0000 </r>
       <r>   -6.7152    1.0000 </r>
       <r>   -6.6689    1.0000 </r>
       <r>   -6.5192    1.0000 </r>
       <r>   -6.5179    1.0000 </r>
       <r>   -6.4225    1.0000 </r>
       <r>   -6.4204    1.0000 </r>
       <r>   -6.2633    1.0000 </r>
       <r>   -6.2155    1.0000 </r>
       <r>   -6.2138    1.0000 </r>
       <r>   -5.9680    1.0000 </r>
       <r>   -5.8722    1.0000 </r>
       <r>   -5.8544    1.0000 </r>
       <r>   -5.8526    1.0000 </r>
       <r>   -5.6742    1.0000 </r>
       <r>   -5.6712    1.0000 </r>
       <r>   -5.6614    1.0000 </r>
       <r>   -5.5738    1.0000 </r>
       <r>   -5.5712    1.0000 </r>
       <r>   -5.0513    1.0000 </r>
       <r>   -5.0282    1.0000 </r>
       <r>   -5.0257    1.0000 </r>
       <r>   -2.4659    0.0000 </r>
       <r>   -2.4635    0.0000 </r>
       <r>   -2.2235    0.0000 </r>
       <r>   -2.2207    0.0000 </r>
       <r>   -2.0957    0.0000 </r>
       <r>   -1.7451    0.0000 </r>
       <r>   -1.7434    0.0000 </r>
       <r>   -1.1019    0.0000 </r>
       <r>   -1.0503    0.0000 </r>
       <r>   -0.6486    0.0000 </r>
       <r>   -0.6459    0.0000 </r>
       <r>   -0.6201    0.0000 </r>
       <r>   -0.6185    0.0000 </r>
       <r>   -0.5904    0.0000 </r>
       <r>   -0.3744    0.0000 </r>
       <r>   -0.3427    0.0000 </r>
       <r>   -0.1117    0.0000 </r>
       <r>   -0.0846    0.0000 </r>
       <r>   -0.0799    0.0000 </r>
       <r>    0.1278    0.0000 </r>
       <r>    0.1293    0.0000 </r>
       <r>    0.3273    0.0000 </r>
       <r>    0.3298    0.0000 </r>
       <r>    0.3467    0.0000 </r>
       <r>    0.4100    0.0000 </r>
       <r>    0.4477    0.0000 </r>
       <r>    0.5729    0.0000 </r>
       <r>    0.5746    0.0000 </r>
       <r>    0.5941    0.0000 </r>
       <r>    0.5971    0.0000 </r>
       <r>    0.6672    0.0000 </r>
       <r>    0.7665    0.0000 </r>
       <r>    0.7741    0.0000 </r>
       <r>    0.8188    0.0000 </r>
       <r>    0.8204    0.0000 </r>
       <r>    0.8631    0.0000 </r>
       <r>    0.8634    0.0000 </r>
       <r>    0.9504    0.0000 </r>
       <r>    0.9960    0.0000 </r>
       <r>    1.0020    0.0000 </r>
       <r>    1.0315    0.0000 </r>
       <r>    1.0504    0.0000 </r>
       <r>    1.1062    0.0000 </r>
       <r>    1.1315    0.0000 </r>
       <r>    1.1355    0.0000 </r>
       <r>    1.1872    0.0000 </r>
       <r>    1.1896    0.0000 </r>
       <r>    1.1901    0.0000 </r>
       <r>    1.2275    0.0000 </r>
      </set>
      <set comment="kpoint 3">
       <r>  -28.2075    1.0000 </r>
       <r>  -28.2059    1.0000 </r>
       <r>  -28.2047    1.0000 </r>
       <r>  -28.1779    1.0000 </r>
       <r>  -28.1765    1.0000 </r>
       <r>  -28.1751    1.0000 </r>
       <r>  -25.8039    1.0000 </r>
       <r>  -25.7998    1.0000 </r>
       <r>  -25.7890    1.0000 </r>
       <r>  -25.7862    1.0000 </r>
       <r>  -25.7845    1.0000 </r>
       <r>  -25.7827    1.0000 </r>
       <r>  -23.5041    1.0000 </r>
       <r>  -23.4998    1.0000 </r>
       <r>  -23.4961    1.0000 </r>
       <r>  -23.4917    1.0000 </r>
       <r>  -23.4911    1.0000 </r>
       <r>  -23.4866    1.0000 </r>
       <r>  -23.0034    1.0000 </r>
       <r>  -23.0008    1.0000 </r>
       <r>  -23.0002    1.0000 </r>
       <r>  -22.8478    1.0000 </r>
       <r>  -22.8448    1.0000 </r>
       <r>  -22.8436    1.0000 </r>
       <r>  -21.6774    1.0000 </r>
       <r>  -21.6372    1.0000 </r>
       <r>  -20.9799    1.0000 </r>
       <r>  -20.9775    1.0000 </r>
       <r>  -20.8822    1.0000 </r>
       <r>  -19.4315    1.0000 </r>
       <r>  -19.4297    1.0000 </r>
       <r>  -19.1169    1.0000 </r>
       <r>  -19.1130    1.0000 </r>
       <r>  -18.8437    1.0000 </r>
       <r>  -18.6943    1.0000 </r>
       <r>  -18.6933    1.0000 </r>
       <r>  -18.4490    1.0000 </r>
       <r>  -18.2462    1.0000 </r>
       <r>  -18.2440    1.0000 </r>
       <r>  -16.8338    1.0000 </r>
       <r>  -16.7942    1.0000 </r>
       <r>  -16.7927    1.0000 </r>
       <r>  -16.3855    1.0000 </r>
       <r>  -16.3841    1.0000 </r>
       <r>  -16.3388    1.0000 </r>
       <r>  -15.9384    1.0000 </r>
       <r>  -15.9360    1.0000 </r>
       <r>  -15.5669    1.0000 </r>
       <r>  -15.5633    1.0000 </r>
       <r>  -15.4975    1.0000 </r>
       <r>  -15.4944    1.0000 </r>
       <r>  -14.8715    1.0000 </r>
       <r>  -14.8687    1.0000 </r>
       <r>  -14.6123    1.0000 </r>
       <r>  -14.6112    1.0000 </r>
       <r>  -14.5375    1.0000 </r>
       <r>  -14.5193    1.0000 </r>
       <r>  -14.5179    1.0000 </r>
       <r>  -14.3362    1.0000 </r>
       <r>  -14.2981    1.0000 </r>
       <r>  -14.1017    1.0000 </r>
       <r>  -14.1003    1.0000 </r>
       <r>  -13.8108    1.0000 </r>
       <r>  -13.7467    1.0000 </r>
       <r>  -13.7292    1.0000 </r>
       <r>  -13.4336    1.0000 </r>
       <r>  -13.1918    1.0000 </r>
       <r>  -13.1527    1.0000 </r>
       <r>  -13.1508    1.0000 </r>
       <r>  -12.8706    1.0000 </r>
       <r>  -12.8677    1.0000 </r>
       <r>  -12.7782    1.0000 </r>
       <r>  -12.7772    1.0000 </r>
       <r>  -12.6186    1.0000 </r>
       <r>  -12.6130    1.0000 </r>
       <r>  -11.9500    1.0000 </r>
       <r>  -11.9287    1.0000 </r>
       <r>  -11.7283    1.0000 </r>
       <r>  -11.7262    1.0000 </r>
       <r>  -11.6308    1.0000 </r>
       <r>  -11.4926    1.0000 </r>
       <r>  -11.4921    1.0000 </r>
       <r>  -11.4480    1.0000 </r>
       <r>  -11.3035    1.0000 </r>
       <r>  -11.3008    1.0000 </r>
       <r>  -11.2988    1.0000 </r>
       <r>  -11.1349    1.0000 </r>
       <r>  -11.1316    1.0000 </r>
       <r>  -11.0702    1.0000 </r>
       <r>  -11.0680    1.0000 </r>
       <r>  -11.0555    1.0000 </r>
       <r>  -10.9734    1.0000 </r>
       <r>  -10.8592    1.0000 </r>
       <r>  -10.8555    1.0000 </r>
       <r>  -10.8539    1.0000 </r>
       <r>  -10.5800    1.0000 </r>
       <r>  -10.4226    1.0000 </r>
       <r>  -10.4193    1.0000 </r>
       <r>  -10.3443    1.0000 </r>
       <r>  -10.1335    1.0000 </r>
       <r>   -9.9704    1.0000 </r>
       <r>   -9.9694    1.0000 </r>
       <r>   -9.9396    1.0000 </r>
       <r>   -9.9393    1.0000 </r>
       <r>   -9.8597    1.0000 </r>
       <r>   -9.8574    1.0000 </r>
       <r>   -9.8172    1.0000 </r>
       <r>   -9.8157    1.0000 </r>
       <r>   -9.7060    1.0000 </r>
       <r>   -9.6792    1.0000 </r>
       <r>   -9.5868    1.0000 </r>
       <r>   -9.4670    1.0000 </r>
       <r>   -9.4640    1.0000 </r>
       <r>   -9.2180    1.0000 </r>
       <r>   -9.2154    1.0000 </r>
       <r>   -9.1991    1.0000 </r>
       <r>   -8.7993    1.0000 </r>
       <r>   -8.7903    1.0000 </r>
       <r>   -8.7755    1.0000 </r>
       <r>   -8.7737    1.0000 </r>
       <r>   -8.7314    1.0000 </r>
       <r>   -8.7310    1.0000 </r>
       <r>   -8.4940    1.0000 </r>
       <r>   -8.4910    1.0000 </r>
       <r>   -8.4058    1.0000 </r>
       <r>   -8.4032    1.0000 </r>
       <r>   -8.3715    1.0000 </r>
       <r>   -8.3279    1.0000 </r>
       <r>   -7.6950    1.0000 </r>
       <r>   -7.6929    1.0000 </r>
       <r>   -7.6586    1.0000 </r>
       <r>   -6.9961    1.0000 </r>
       <r>   -6.9932    1.0000 </r>
       <r>   -6.9135    1.0000 </r>
       <r>   -6.8710    1.0000 </r>
       <r>   -6.8692    1.0000 </r>
       <r>   -6.8608    1.0000 </r>
       <r>   -6.7172    1.0000 </r>
       <r>   -6.7152    1.0000 </r>
       <r>   -6.6693    1.0000 </r>
       <r>   -6.5186    1.0000 </r>
       <r>   -6.5178    1.0000 </r>
       <r>   -6.4226    1.0000 </r>
       <r>   -6.4208    1.0000 </r>
       <r>   -6.2630    1.0000 </r>
       <r>   -6.2157    1.0000 </r>
       <r>   -6.2139    1.0000 </r>
       <r>   -5.9678    1.0000 </r>
       <r>   -5.8750    1.0000 </r>
       <r>   -5.8540    1.0000 </r>
       <r>   -5.8501    1.0000 </r>
       <r>   -5.6775    1.0000 </r>
       <r>   -5.6715    1.0000 </r>
       <r>   -5.6581    1.0000 </r>
       <r>   -5.5738    1.0000 </r>
       <r>   -5.5714    1.0000 </r>
       <r>   -5.0512    1.0000 </r>
       <r>   -5.0282    1.0000 </r>
       <r>   -5.0258    1.0000 </r>
       <r>   -2.4658    0.0000 </r>
       <r>   -2.4630    0.0000 </r>
       <r>   -2.2270    0.0000 </r>
       <r>   -2.2209    0.0000 </r>
       <r>   -2.0915    0.0000 </r>
       <r>   -1.7457    0.0000 </r>
       <r>   -1.7439    0.0000 </r>
       <r>   -1.1018    0.0000 </r>
       <r>   -1.0507    0.0000 </r>
       <r>   -0.6486    0.0000 </r>
       <r>   -0.6459    0.0000 </r>
       <r>   -0.6207    0.0000 </r>
       <r>   -0.6195    0.0000 </r>
       <r>   -0.5876    0.0000 </r>
       <r>   -0.3737    0.0000 </r>
       <r>   -0.3436    0.0000 </r>
       <r>   -0.1199    0.0000 </r>
       <r>   -0.0847    0.0000 </r>
       <r>   -0.0719    0.0000 </r>
       <r>    0.1278    0.0000 </r>
       <r>    0.1292    0.0000 </r>
       <r>    0.3273    0.0000 </r>
       <r>    0.3300    0.0000 </r>
       <r>    0.3472    0.0000 </r>
       <r>    0.4097    0.0000 </r>
       <r>    0.4483    0.0000 </r>
       <r>    0.5716    0.0000 </r>
       <r>    0.5734    0.0000 </r>
       <r>    0.5933    0.0000 </r>
       <r>    0.5974    0.0000 </r>
       <r>    0.6677    0.0000 </r>
       <r>    0.7655    0.0000 </r>
       <r>    0.7757    0.0000 </r>
       <r>    0.8182    0.0000 </r>
       <r>    0.8197    0.0000 </r>
       <r>    0.8628    0.0000 </r>
       <r>    0.8646    0.0000 </r>
       <r>    0.9501    0.0000 </r>
       <r>    0.9950    0.0000 </r>
       <r>    1.0028    0.0000 </r>
       <r>    1.0327    0.0000 </r>
       <r>    1.0505    0.0000 </r>
       <r>    1.1063    0.0000 </r>
       <r>    1.1311    0.0000 </r>
       <r>    1.1349    0.0000 </r>
       <r>    1.1877    0.0000 </r>
       <r>    1.1896    0.0000 </r>
       <r>    1.1928    0.0000 </r>
       <r>    1.2289    0.0000 </r>
      </set>
      <set comment="kpoint 4">
       <r>  -28.2075    1.0000 </r>
       <r>  -28.2059    1.0000 </r>
       <r>  -28.2047    1.0000 </r>
       <r>  -28.1779    1.0000 </r>
       <r>  -28.1765    1.0000 </r>
       <r>  -28.1751    1.0000 </r>
       <r>  -25.8039    1.0000 </r>
       <r>  -25.7998    1.0000 </r>
       <r>  -25.7890    1.0000 </r>
       <r>  -25.7862    1.0000 </r>
       <r>  -25.7845    1.0000 </r>
       <r>  -25.7827    1.0000 </r>
       <r>  -23.5041    1.0000 </r>
       <r>  -23.4998    1.0000 </r>
       <r>  -23.4961    1.0000 </r>
       <r>  -23.4917    1.0000 </r>
       <r>  -23.4911    1.0000 </r>
       <r>  -23.4866    1.0000 </r>
       <r>  -23.0034    1.0000 </r>
       <r>  -23.0008    1.0000 </r>
       <r>  -23.0002    1.0000 </r>
       <r>  -22.8478    1.0000 </r>
       <r>  -22.8448    1.0000 </r>
       <r>  -22.8437    1.0000 </r>
       <r>  -21.6771    1.0000 </r>
       <r>  -21.6376    1.0000 </r>
       <r>  -20.9798    1.0000 </r>
       <r>  -20.9769    1.0000 </r>
       <r>  -20.8829    1.0000 </r>
       <r>  -19.4315    1.0000 </r>
       <r>  -19.4280    1.0000 </r>
       <r>  -19.1212    1.0000 </r>
       <r>  -19.1130    1.0000 </r>
       <r>  -18.8403    1.0000 </r>
       <r>  -18.6944    1.0000 </r>
       <r>  -18.6935    1.0000 </r>
       <r>  -18.4478    1.0000 </r>
       <r>  -18.2473    1.0000 </r>
       <r>  -18.2446    1.0000 </r>
       <r>  -16.8334    1.0000 </r>
       <r>  -16.7942    1.0000 </r>
       <r>  -16.7929    1.0000 </r>
       <r>  -16.3855    1.0000 </r>
       <r>  -16.3838    1.0000 </r>
       <r>  -16.3393    1.0000 </r>
       <r>  -15.9384    1.0000 </r>
       <r>  -15.9336    1.0000 </r>
       <r>  -15.5708    1.0000 </r>
       <r>  -15.5634    1.0000 </r>
       <r>  -15.4975    1.0000 </r>
       <r>  -15.4942    1.0000 </r>
       <r>  -14.8715    1.0000 </r>
       <r>  -14.8660    1.0000 </r>
       <r>  -14.6133    1.0000 </r>
       <r>  -14.6111    1.0000 </r>
       <r>  -14.5374    1.0000 </r>
       <r>  -14.5196    1.0000 </r>
       <r>  -14.5180    1.0000 </r>
       <r>  -14.3346    1.0000 </r>
       <r>  -14.2968    1.0000 </r>
       <r>  -14.1024    1.0000 </r>
       <r>  -14.1005    1.0000 </r>
       <r>  -13.8260    1.0000 </r>
       <r>  -13.7465    1.0000 </r>
       <r>  -13.7149    1.0000 </r>
       <r>  -13.4344    1.0000 </r>
       <r>  -13.1915    1.0000 </r>
       <r>  -13.1527    1.0000 </r>
       <r>  -13.1510    1.0000 </r>
       <r>  -12.8706    1.0000 </r>
       <r>  -12.8672    1.0000 </r>
       <r>  -12.7788    1.0000 </r>
       <r>  -12.7775    1.0000 </r>
       <r>  -12.6185    1.0000 </r>
       <r>  -12.6131    1.0000 </r>
       <r>  -11.9499    1.0000 </r>
       <r>  -11.9289    1.0000 </r>
       <r>  -11.7283    1.0000 </r>
       <r>  -11.7256    1.0000 </r>
[...]
       <r>   -27.9518     0.0000    12.0000 </r>
       <r>   -27.8437     0.0000    12.0000 </r>
       <r>   -27.7355     0.0000    12.0000 </r>
       <r>   -27.6274     0.0000    12.0000 </r>
       <r>   -27.5192     0.0000    12.0000 </r>
       <r>   -27.4111     0.0000    12.0000 </r>
       <r>   -27.3029     0.0000    12.0000 </r>
       <r>   -27.1948     0.0000    12.0000 </r>
       <r>   -27.0866     0.0000    12.0000 </r>
       <r>   -26.9785     0.0000    12.0000 </r>
       <r>   -26.8703     0.0000    12.0000 </r>
       <r>   -26.7622     0.0000    12.0000 </r>
       <r>   -26.6540     0.0000    12.0000 </r>
       <r>   -26.5459     0.0000    12.0000 </r>
       <r>   -26.4377     0.0000    12.0000 </r>
       <r>   -26.3296     0.0000    12.0000 </r>
       <r>   -26.2214     0.0000    12.0000 </r>
       <r>   -26.1133     0.0000    12.0000 </r>
       <r>   -26.0051     0.0000    12.0000 </r>
       <r>   -25.8970     0.0000    12.0000 </r>
       <r>   -25.7888    60.0970    18.4995 </r>
       <r>   -25.6807     0.0000    24.0000 </r>
       <r>   -25.5725     0.0000    24.0000 </r>
       <r>   -25.4644     0.0000    24.0000 </r>
       <r>   -25.3562     0.0000    24.0000 </r>
       <r>   -25.2481     0.0000    24.0000 </r>
       <r>   -25.1399     0.0000    24.0000 </r>
       <r>   -25.0318     0.0000    24.0000 </r>
       <r>   -24.9236     0.0000    24.0000 </r>
       <r>   -24.8155     0.0000    24.0000 </r>
       <r>   -24.7073     0.0000    24.0000 </r>
       <r>   -24.5992     0.0000    24.0000 </r>
       <r>   -24.4910     0.0000    24.0000 </r>
       <r>   -24.3829     0.0000    24.0000 </r>
       <r>   -24.2747     0.0000    24.0000 </r>
       <r>   -24.1666     0.0000    24.0000 </r>
       <r>   -24.0584     0.0000    24.0000 </r>
       <r>   -23.9503     0.0000    24.0000 </r>
       <r>   -23.8421     0.0000    24.0000 </r>
       <r>   -23.7340     0.0000    24.0000 </r>
       <r>   -23.6258     0.0000    24.0000 </r>
       <r>   -23.5177     0.6311    24.0683 </r>
       <r>   -23.4095    18.4926    36.0000 </r>
       <r>   -23.3014     0.0000    36.0000 </r>
       <r>   -23.1932     0.0000    36.0000 </r>
       <r>   -23.0851     0.0000    36.0000 </r>
       <r>   -22.9769    55.4611    41.9981 </r>
       <r>   -22.8688     0.0348    42.0038 </r>
       <r>   -22.7606     0.0000    48.0000 </r>
       <r>   -22.6525     0.0000    48.0000 </r>
       <r>   -22.5443     0.0000    48.0000 </r>
       <r>   -22.4362     0.0000    48.0000 </r>
       <r>   -22.3280     0.0000    48.0000 </r>
       <r>   -22.2199     0.0000    48.0000 </r>
       <r>   -22.1117     0.0000    48.0000 </r>
       <r>   -22.0036     0.0000    48.0000 </r>
       <r>   -21.8954     0.0000    48.0000 </r>
       <r>   -21.7873     0.0000    48.0000 </r>
       <r>   -21.6791     2.4525    48.2652 </r>
       <r>   -21.5710    10.4792    52.0000 </r>
       <r>   -21.4628     0.0000    52.0000 </r>
       <r>   -21.3547     0.0000    52.0000 </r>
       <r>   -21.2465     0.0000    52.0000 </r>
       <r>   -21.1384     0.0000    52.0000 </r>
       <r>   -21.0302     0.0000    52.0000 </r>
       <r>   -20.9221    40.4816    56.3781 </r>
       <r>   -20.8139     5.8560    58.0000 </r>
       <r>   -20.7058     0.0000    58.0000 </r>
       <r>   -20.5976     0.0000    58.0000 </r>
       <r>   -20.4895     0.0000    58.0000 </r>
       <r>   -20.3813     0.0000    58.0000 </r>
       <r>   -20.2732     0.0000    58.0000 </r>
       <r>   -20.1650     0.0000    58.0000 </r>
       <r>   -20.0569     0.0000    58.0000 </r>
       <r>   -19.9487     0.0000    58.0000 </r>
       <r>   -19.8406     0.0000    58.0000 </r>
       <r>   -19.7324     0.0000    58.0000 </r>
       <r>   -19.6243     0.0000    58.0000 </r>
       <r>   -19.5161     0.0000    58.0000 </r>
       <r>   -19.4080    23.5479    60.5467 </r>
       <r>   -19.2998    11.4678    62.0736 </r>
       <r>   -19.1917     7.9535    63.2935 </r>
       <r>   -19.0835    23.7321    66.0000 </r>
       <r>   -18.9754     0.0000    66.0000 </r>
       <r>   -18.8672     0.0020    66.0002 </r>
       <r>   -18.7591     8.5594    67.1590 </r>
       <r>   -18.6509    36.3691    72.0000 </r>
       <r>   -18.5427     0.0000    72.0000 </r>
       <r>   -18.4346     4.6459    72.5025 </r>
       <r>   -18.3264    15.0541    74.4948 </r>
       <r>   -18.2183    26.8124    77.9998 </r>
       <r>   -18.1101     0.0000    78.0000 </r>
       <r>   -18.0020     0.0000    78.0000 </r>
       <r>   -17.8938     0.0000    78.0000 </r>
       <r>   -17.7857     0.0000    78.0000 </r>
       <r>   -17.6775     0.0000    78.0000 </r>
       <r>   -17.5694     0.0000    78.0000 </r>
       <r>   -17.4612     0.0000    78.0000 </r>
       <r>   -17.3531     0.0000    78.0000 </r>
       <r>   -17.2449     0.0000    78.0000 </r>
       <r>   -17.1368     0.0000    78.0000 </r>
       <r>   -17.0286     0.0000    78.0000 </r>
       <r>   -16.9205     0.0000    78.0000 </r>
       <r>   -16.8123    18.0294    79.9499 </r>
       <r>   -16.7042     0.0000    84.0000 </r>
       <r>   -16.5960     0.0000    84.0000 </r>
       <r>   -16.4879     0.0000    84.0000 </r>
       <r>   -16.3797    20.7018    86.2389 </r>
       <r>   -16.2716     7.3971    90.0000 </r>
       <r>   -16.1634     0.0000    90.0000 </r>
       <r>   -16.0553     0.0000    90.0000 </r>
       <r>   -15.9471     2.0993    90.2270 </r>
       <r>   -15.8390     5.6180    93.0409 </r>
       <r>   -15.7308     7.9241    94.4237 </r>
       <r>   -15.6227     3.9265    95.3913 </r>
       <r>   -15.5145    22.6073    98.0117 </r>
       <r>   -15.4064     0.0000   102.0000 </r>
       <r>   -15.2982     0.0000   102.0000 </r>
       <r>   -15.1901     0.0000   102.0000 </r>
       <r>   -15.0819     0.0000   102.0000 </r>
       <r>   -14.9738     0.0000   102.0000 </r>
       <r>   -14.8656    18.7334   104.0260 </r>
       <r>   -14.7575     8.4231   105.4110 </r>
       <r>   -14.6493    12.4768   107.1827 </r>
       <r>   -14.5412    27.5115   110.5420 </r>
       <r>   -14.4330     0.0000   116.0000 </r>
       <r>   -14.3249     3.7755   116.4083 </r>
       <r>   -14.2167    27.7391   120.0000 </r>
       <r>   -14.1086    18.8661   122.0404 </r>
       <r>   -14.0004     9.2395   125.0659 </r>
       <r>   -13.8923     3.0586   125.5308 </r>
       <r>   -13.7841     3.3010   125.9903 </r>
       <r>   -13.6760    22.0468   128.3844 </r>
       <r>   -13.5678     3.9770   128.9301 </r>
       <r>   -13.4597    16.3938   131.1730 </r>
       <r>   -13.3515     0.0000   132.0000 </r>
       <r>   -13.2434     0.0000   132.0000 </r>
       <r>   -13.1352    55.2504   137.9753 </r>
       <r>   -13.0271     0.0000   138.0000 </r>
       <r>   -12.9189     0.0000   138.0000 </r>
       <r>   -12.8108    43.8419   142.7415 </r>
       <r>   -12.7026    21.8831   146.0000 </r>
       <r>   -12.5945    36.8981   149.9905 </r>
       <r>   -12.4863     0.0000   150.0000 </r>
       <r>   -12.3782     0.0000   150.0000 </r>
       <r>   -12.2700     0.0000   150.0000 </r>
       <r>   -12.1619     0.0000   150.0000 </r>
       <r>   -12.0537     0.0000   150.0000 </r>
       <r>   -11.9456    11.0817   151.1985 </r>
       <r>   -11.8374     0.0000   154.0000 </r>
       <r>   -11.7293     9.6983   155.0489 </r>
       <r>   -11.6211    27.1722   159.9720 </r>
       <r>   -11.5130     0.0315   160.0034 </r>
       <r>   -11.4048    31.7459   166.0000 </r>
       <r>   -11.2967    39.5380   170.2760 </r>
       <r>   -11.1885     0.0000   172.0000 </r>
       <r>   -11.0804    52.7323   177.7030 </r>
       <r>   -10.9722    32.8217   183.7830 </r>
       <r>   -10.8641     6.7938   184.7348 </r>
       <r>   -10.7559     0.0000   190.0000 </r>
       <r>   -10.6478     0.0000   190.0000 </r>
       <r>   -10.5396    14.6874   191.5884 </r>
       <r>   -10.4315    12.4369   193.8117 </r>
       <r>   -10.3233     3.6810   196.3981 </r>
       <r>   -10.2152    13.1060   198.0508 </r>
       <r>   -10.1070    10.1707   200.0000 </r>
       <r>    -9.9989     0.0002   200.0000 </r>
       <r>    -9.8907    73.9939   208.0025 </r>
       <r>    -9.7826    59.7891   215.9995 </r>
       <r>    -9.6744    33.5478   219.6282 </r>
       <r>    -9.5663     6.8404   220.7398 </r>
       <r>    -9.4581    37.3515   225.7062 </r>
       <r>    -9.3500     0.0000   226.0000 </r>
       <r>    -9.2418     0.0036   226.0004 </r>
       <r>    -9.1337    31.7459   232.0000 </r>
       <r>    -9.0255     0.0000   232.0000 </r>
       <r>    -8.9174     0.0000   232.0000 </r>
       <r>    -8.8092     7.8203   232.8458 </r>
       <r>    -8.7011    73.9710   244.0000 </r>
       <r>    -8.5929     0.0000   244.0000 </r>
       <r>    -8.4848    20.7429   246.2434 </r>
       <r>    -8.3766    35.8781   252.0802 </r>
       <r>    -8.2685    28.3556   256.0000 </r>
       <r>    -8.1603     0.0000   256.0000 </r>
       <r>    -8.0522     0.0000   256.0000 </r>
       <r>    -7.9440     0.0000   256.0000 </r>
       <r>    -7.8359     0.0000   256.0000 </r>
       <r>    -7.7277     0.0000   256.0000 </r>
       <r>    -7.6196    55.4783   262.0000 </r>
       <r>    -7.5114     0.0000   262.0000 </r>
       <r>    -7.4033     0.0000   262.0000 </r>
       <r>    -7.2951     0.0000   262.0000 </r>
       <r>    -7.1870     0.0000   262.0000 </r>
       <r>    -7.0788     0.0000   262.0000 </r>
       <r>    -6.9707    28.7905   265.1137 </r>
       <r>    -6.8625    50.7771   272.0249 </r>
       <r>    -6.7544     0.0000   274.0000 </r>
       <r>    -6.6462    55.4767   279.9998 </r>
       <r>    -6.5381     0.0203   280.0022 </r>
       <r>    -6.4299    32.2275   285.9854 </r>
       <r>    -6.3218     0.0000   288.0000 </r>
       <r>    -6.2136    44.4506   292.8073 </r>
       <r>    -6.1055     0.0000   294.0000 </r>
       <r>    -5.9973     0.0000   294.0000 </r>
       <r>    -5.8892    33.3835   297.6104 </r>
       <r>    -5.7810    31.5205   301.4090 </r>
       <r>    -5.6729    22.6706   304.7518 </r>
       <r>    -5.5647    49.0708   311.6737 </r>
       <r>    -5.4566     0.0000   312.0000 </r>
       <r>    -5.3484     0.0000   312.0000 </r>
       <r>    -5.2403     0.0000   312.0000 </r>
       <r>    -5.1321     0.0000   312.0000 </r>
       <r>    -5.0240    46.6427   317.0444 </r>
       <r>    -4.9158     0.0000   318.0000 </r>
       <r>    -4.8077     0.0000   318.0000 </r>
       <r>    -4.6995     0.0000   318.0000 </r>
       <r>    -4.5914     0.0000   318.0000 </r>
       <r>    -4.4832     0.0000   318.0000 </r>
       <r>    -4.3751     0.0000   318.0000 </r>
       <r>    -4.2669     0.0000   318.0000 </r>
       <r>    -4.1588     0.0000   318.0000 </r>
       <r>    -4.0506     0.0000   318.0000 </r>
       <r>    -3.9425     0.0000   318.0000 </r>
       <r>    -3.8343     0.0000   318.0000 </r>
       <r>    -3.7262     0.0000   318.0000 </r>
       <r>    -3.6180     0.0000   318.0000 </r>
       <r>    -3.5099     0.0000   318.0000 </r>
       <r>    -3.4017     0.0000   318.0000 </r>
       <r>    -3.2936     0.0000   318.0000 </r>
       <r>    -3.1854     0.0000   318.0000 </r>
       <r>    -3.0773     0.0000   318.0000 </r>
       <r>    -2.9691     0.0000   318.0000 </r>
       <r>    -2.8610     0.0000   318.0000 </r>
       <r>    -2.7528     0.0000   318.0000 </r>
       <r>    -2.6447     0.0000   318.0000 </r>
       <r>    -2.5365     0.0000   318.0000 </r>
       <r>    -2.4284    27.0327   320.9236 </r>
       <r>    -2.3202    13.5478   323.1652 </r>
       <r>    -2.2121    22.3883   325.7880 </r>
       <r>    -2.1039     0.1979   326.0214 </r>
       <r>    -1.9958     3.9985   326.7324 </r>
       <r>    -1.8876     9.6000   327.9049 </r>
       <r>    -1.7795    10.0270   329.3511 </r>
       <r>    -1.6713    21.2667   332.0000 </r>
       <r>    -1.5632     0.0000   332.0000 </r>
       <r>    -1.4550     0.0000   332.0000 </r>
       <r>    -1.3469     0.0000   332.0000 </r>
       <r>    -1.2387     0.0000   332.0000 </r>
       <r>    -1.1305     0.0001   332.0000 </r>
       <r>    -1.0224    36.9854   336.0000 </r>
       <r>    -0.9142     0.0000   336.0000 </r>
       <r>    -0.8061     0.0000   336.0000 </r>
       <r>    -0.6979     0.0000   336.0000 </r>
       <r>    -0.5898    74.9961   344.1109 </r>
       <r>    -0.4816     8.1784   345.3178 </r>
       <r>    -0.3735    15.2441   347.5153 </r>
       <r>    -0.2653    17.5424   350.4639 </r>
       <r>    -0.1572     4.9811   351.6054 </r>
       <r>    -0.0490    23.1989   354.3090 </r>
       <r>     0.0591     9.7805   355.5578 </r>
       <r>     0.1673    35.4414   359.9997 </r>
       <r>     0.2754     0.0000   360.0000 </r>
       <r>     0.3836    55.4789   366.0001 </r>
       <r>     0.4917    29.2796   369.9999 </r>
       <r>     0.5999    67.0439   377.5842 </r>
       <r>     0.7080    21.5963   380.3356 </r>
       <r>     0.8162    39.4304   385.5311 </r>
       <r>     0.9243    35.7334   391.1979 </r>
       <r>     1.0325    53.5042   398.6865 </r>
       <r>     1.1406    46.3409   406.2118 </r>
       <r>     1.2488    60.7174   414.7666 </r>
       <r>     1.3569     2.7739   416.0000 </r>
       <r>     1.4651     0.0000   416.0000 </r>
       <r>     1.5732     0.0000   416.0000 </r>
       <r>     1.6814     0.0000   416.0000 </r>
       <r>     1.7895     0.0000   416.0000 </r>
       <r>     1.8977     0.0000   416.0000 </r>
       <r>     2.0058     0.0000   416.0000 </r>
       <r>     2.1140     0.0000   416.0000 </r>
       <r>     2.2221     0.0000   416.0000 </r>
       <r>     2.3303     0.0000   416.0000 </r>
       <r>     2.4384     0.0000   416.0000 </r>
       <r>     2.5466     0.0000   416.0000 </r>
       <r>     2.6547     0.0000   416.0000 </r>
       <r>     2.7629     0.0000   416.0000 </r>
      </set>
     </set>
    </array>
   </total>
  </dos>
 </calculation>
 <structure name="finalpos" >
  <crystal>
   <varray name="basis" >
    <v>      22.38533608       0.00270243       0.00000000 </v>
    <v>     -11.19035515      19.35521967       0.00000000 </v>
    <v>       0.00000000       0.00000000      20.00000000 </v>
   </varray>
   <i name="volume">   8666.06676502 </i>
   <varray name="rec_basis" >
    <v>       0.04466898       0.02582568       0.00000000 </v>
    <v>      -0.00000624       0.05166204       0.00000000 </v>
    <v>       0.00000000       0.00000000       0.05000000 </v>
   </varray>
  </crystal>
  <varray name="positions" >
   <v>       0.35283650       0.61735622       0.44211959 </v>
   <v>       0.28208427       0.59467154       0.44240022 </v>
   <v>       0.25865842       0.64200194       0.44324402 </v>
   <v>       0.30678027       0.71284701       0.44325831 </v>
   <v>       0.40009517       0.68817175       0.44214228 </v>
   <v>       0.37208333       0.56213426       0.44795513 </v>
   <v>       0.18437236       0.62287924       0.45011180 </v>
   <v>       0.64008385       0.38041801       0.55307742 </v>
   <v>       0.71079740       0.40293719       0.55281895 </v>
   <v>       0.73408599       0.35549577       0.55281677 </v>
   <v>       0.68583132       0.28469144       0.55352797 </v>
   <v>       0.59267945       0.30961894       0.55392888 </v>
   <v>       0.62118499       0.43585777       0.54659649 </v>
   <v>       0.80836070       0.37443821       0.54632021 </v>
   <v>       0.53979657       0.07176182       0.51930828 </v>
   <v>       0.54060691       0.01623389       0.54999785 </v>
   <v>       0.49930190       0.94593891       0.53238484 </v>
   <v>       0.55830329       0.95083272       0.61752304 </v>
   <v>       0.52608321       0.45560242       0.51770780 </v>
   <v>       0.46954792       0.45446723       0.54816395 </v>
   <v>       0.44055924       0.49568704       0.53049629 </v>
   <v>       0.38609318       0.43619414       0.61534200 </v>
   <v>       0.92343508       0.46952007       0.51804181 </v>
   <v>       0.97881966       0.52558276       0.54917477 </v>
   <v>       0.04911548       0.55415422       0.53216814 </v>
   <v>       0.04392870       0.60827743       0.61722416 </v>
   <v>       0.37749668       0.73633580       0.44303083 </v>
   <v>       0.43282846       0.81068627       0.44983567 </v>
   <v>       0.61513743       0.26131940       0.55384288 </v>
   <v>       0.55975264       0.18682908       0.54818523 </v>
   <v>       0.45242494       0.92563761       0.47875598 </v>
   <v>       0.45144168       0.98112359       0.44819536 </v>
   <v>       0.49281410       0.05142069       0.46574144 </v>
   <v>       0.43358937       0.04643696       0.38071894 </v>
   <v>       0.46739414       0.54284366       0.47704117 </v>
   <v>       0.52403351       0.54412384       0.44669696 </v>
   <v>       0.55293782       0.50279102       0.46426329 </v>
   <v>       0.60752528       0.56250743       0.37955060 </v>
   <v>       0.06955857       0.52751261       0.47868653 </v>
   <v>       0.01420780       0.47130880       0.44768602 </v>
   <v>       0.94391043       0.44279754       0.46464033 </v>
   <v>       0.94913454       0.38849953       0.37973503 </v>
   <v>       0.28520566       0.74706751       0.44581432 </v>
   <v>       0.45590558       0.70982991       0.44375424 </v>
   <v>       0.24786582       0.53879221       0.44417367 </v>
   <v>       0.70730238       0.25035579       0.55159701 </v>
   <v>       0.53687741       0.28809011       0.55252622 </v>
   <v>       0.74509717       0.45878276       0.55040804 </v>
   <v>       0.58280199       0.94135622       0.65985997 </v>
   <v>       0.63287693       0.15568796       0.54849928 </v>
   <v>       0.35190687       0.41139522       0.65749212 </v>
   <v>       0.51693642       0.36266381       0.54751860 </v>
   <v>       0.05323279       0.64220219       0.65960335 </v>
   <v>       0.83983119       0.47887133       0.54780748 </v>
   <v>       0.40900265       0.05589184       0.33843260 </v>
   <v>       0.35994635       0.84204301       0.44797177 </v>
   <v>       0.64176031       0.58741089       0.33745493 </v>
   <v>       0.47626452       0.63569450       0.44739963 </v>
   <v>       0.93985533       0.35448403       0.33744289 </v>
   <v>       0.15326034       0.51854701       0.44861570 </v>
   <v>       0.49450803       0.82846411       0.44958734 </v>
   <v>       0.32844216       0.50028056       0.44693785 </v>
   <v>       0.16644663       0.66671480       0.44983851 </v>
   <v>       0.49804036       0.16886102       0.54952433 </v>
   <v>       0.66509502       0.49763772       0.54708376 </v>
   <v>       0.82615849       0.33050578       0.54693045 </v>
   <v>       0.57938957       0.01943550       0.60497724 </v>
   <v>       0.43378229       0.41539899       0.60297729 </v>
   <v>       0.97540089       0.56118403       0.60407387 </v>
   <v>       0.41246723       0.97782212       0.39332503 </v>
   <v>       0.55993820       0.58341378       0.39204729 </v>
   <v>       0.01764950       0.43556717       0.39291668 </v>
   <v>       0.51203019       0.90614090       0.57762152 </v>
   <v>       0.58281173       0.14047666       0.53872902 </v>
   <v>       0.38777315       0.48257446       0.57550829 </v>
   <v>       0.55177283       0.41273423       0.53740608 </v>
   <v>       0.08872608       0.60639867       0.57777131 </v>
   <v>       0.85475094       0.44393729       0.53709074 </v>
   <v>       0.48001832       0.09116406       0.42049160 </v>
   <v>       0.40969868       0.85702320       0.45906359 </v>
   <v>       0.60569586       0.51593620       0.41920796 </v>
   <v>       0.44154446       0.58555045       0.45732942 </v>
   <v>       0.90433379       0.39051340       0.41908582 </v>
   <v>       0.13819182       0.55334831       0.45938644 </v>
  </varray>
 </structure>
</modeling>
