<?xml version="1.0" encoding="ISO-8859-1"?>
<modeling>
 <generator>
  <i name="program" type="string">vasp </i>
  <i name="version" type="string">5.4.4.18Apr17-6-g9f103f2a35  </i>
  <i name="subversion" type="string">(build Jun 07 2020 16:50:00) complex            parallel </i>
  <i name="platform" type="string">LinuxIFC </i>
  <i name="date" type="string">2023 02 23 </i>
  <i name="time" type="string">14:47:03 </i>
 </generator>
 <incar>
  <i type="string" name="SYSTEM">Simulation for cell shape cell volume r</i>
  <i type="int" name="ISTART">     1</i>
  <i type="string" name="PREC">high</i>
  <i type="string" name="ALGO">48</i>
  <i type="int" name="ICHARG">    11</i>
  <i type="int" name="NELM">   200</i>
  <i type="int" name="IBRION">    -1</i>
  <i name="EDIFF">      0.00001000</i>
  <i name="EDIFFG">     -0.01000000</i>
  <i type="int" name="NSW">     0</i>
  <i type="int" name="ISIF">     2</i>
  <i name="ENCUT">    500.00000000</i>
  <i name="POTIM">      0.30000000</i>
  <i type="string" name="LREAL">A</i>
  <i type="int" name="ISMEAR">     0</i>
  <i name="SIGMA">      0.01000000</i>
  <i type="int" name="NWRITE">     0</i>
  <i type="logical" name="LWAVE"> F  </i>
  <i type="logical" name="LCHARG"> F  </i>
  <v type="int" name="KPOINT_BSE">    -1     0     0     0</v>
  <i type="int" name="NELM">   200</i>
  <i type="string" name="GGA">PE</i>
 </incar>
 <structure name="primitive_cell" >
  <crystal>
   <varray name="basis" >
    <v>      29.66274077       0.00165906       0.00000000 </v>
    <v>     -14.82983408      25.68272836       0.00000000 </v>
    <v>       0.00000000       0.00000000      20.00000000 </v>
   </varray>
   <i name="volume">  15236.89434166 </i>
   <varray name="rec_basis" >
    <v>       0.03371124       0.01946569       0.00000000 </v>
    <v>      -0.00000218       0.03893542       0.00000000 </v>
    <v>       0.00000000       0.00000000       0.05000000 </v>
   </varray>
  </crystal>
  <varray name="positions" >
   <v>      -0.48031037       0.03306559       0.43287482 </v>
   <v>       0.49349176      -0.01907187       0.42955454 </v>
   <v>      -0.47908165       0.05617396       0.49127893 </v>
   <v>       0.49677835       0.03071408      -0.45209147 </v>
   <v>       0.46890168      -0.04951679       0.48696007 </v>
   <v>       0.49086301      -0.04166549       0.36140050 </v>
   <v>      -0.44969989       0.11373759       0.49315536 </v>
   <v>       0.49239557      -0.01423012       0.32347748 </v>
   <v>      -0.40247322       0.12092104       0.40757474 </v>
   <v>       0.47201124      -0.02106286      -0.45524911 </v>
   <v>      -0.41058974       0.14208805       0.44580040 </v>
   <v>      -0.47537712      -0.04692887       0.35287330 </v>
   <v>       0.45559661      -0.07967624       0.35480963 </v>
   <v>      -0.46066167       0.14098025      -0.45803924 </v>
   <v>       0.44054589      -0.10694066       0.48875132 </v>
   <v>       0.45370106      -0.04184172      -0.40889699 </v>
   <v>      -0.49049379       0.11895218      -0.42074192 </v>
   <v>       0.49834193      -0.11636153       0.43418529 </v>
   <v>      -0.38281879       0.19623631       0.44769300 </v>
   <v>       0.46065117      -0.13625738       0.45919597 </v>
   <v>      -0.43405513       0.19517602      -0.45773821 </v>
   <v>       0.39236984      -0.13433584      -0.47806295 </v>
   <v>       0.37559319      -0.11277178      -0.45478946 </v>
   <v>      -0.35242476       0.21790099       0.41076653 </v>
   <v>      -0.39451365       0.22370931       0.49541423 </v>
   <v>      -0.44314680       0.21600340      -0.41996242 </v>
   <v>       0.43342214      -0.19039618       0.46168037 </v>
   <v>       0.36536622      -0.18847708      -0.47517359 </v>
   <v>       0.44964617      -0.21182545       0.43672439 </v>
   <v>      -0.36603968       0.28136287       0.49587258 </v>
   <v>       0.38505650      -0.21781848       0.49432774 </v>
   <v>      -0.28987490       0.28857838       0.49535629 </v>
   <v>       0.32848691      -0.20833066      -0.44820559 </v>
   <v>      -0.43579360       0.28714737       0.49596106 </v>
   <v>      -0.31144959       0.30949903       0.49560188 </v>
   <v>      -0.39331018       0.30870243       0.49593138 </v>
   <v>       0.35573197      -0.27545037       0.49568476 </v>
   <v>       0.42424683      -0.28325399       0.49544105 </v>
   <v>       0.28036062      -0.28109256       0.49535397 </v>
   <v>      -0.28411462       0.36411869       0.49536198 </v>
   <v>      -0.36684061       0.36330218       0.49562279 </v>
   <v>       0.38181099      -0.30398772       0.49578499 </v>
   <v>       0.30110340      -0.30279366       0.49573063 </v>
   <v>      -0.44355173       0.34969668       0.40993410 </v>
   <v>      -0.21851717       0.35239116      -0.42102873 </v>
   <v>      -0.31223527       0.39059504       0.49540663 </v>
   <v>      -0.22647145       0.39325337       0.49444245 </v>
   <v>      -0.43502362       0.38004289       0.44686488 </v>
   <v>      -0.39602454       0.39176994       0.49484364 </v>
   <v>      -0.19780841       0.38223932      -0.45892520 </v>
   <v>       0.20918051      -0.32706636       0.43623425 </v>
   <v>       0.35450736      -0.35863167       0.49567669 </v>
   <v>       0.44879923      -0.33159347      -0.44804797 </v>
   <v>       0.27256584      -0.35741388       0.49566566 </v>
   <v>      -0.29132053       0.43309435       0.49504288 </v>
   <v>      -0.19914365       0.43230620       0.44652592 </v>
   <v>      -0.22092748       0.44096730       0.40970210 </v>
   <v>       0.29988838      -0.38472703       0.49576480 </v>
   <v>      -0.14364074       0.40974860      -0.45958933 </v>
   <v>      -0.46150151       0.40770514       0.44473922 </v>
   <v>      -0.38516476       0.43133863      -0.45840642 </v>
   <v>       0.18765582      -0.36465960       0.46130631 </v>
   <v>       0.43181183      -0.36836271      -0.47530135 </v>
   <v>      -0.49064278       0.39958121       0.40630511 </v>
   <v>       0.38280418      -0.38795789       0.49417637 </v>
   <v>      -0.35531043       0.44050545      -0.42051731 </v>
   <v>      -0.12147466       0.40199183      -0.42245732 </v>
   <v>       0.21495270      -0.38562110       0.49424434 </v>
   <v>      -0.14500482       0.45863805       0.44429623 </v>
   <v>      -0.11653805       0.44790383       0.49150070 </v>
   <v>       0.27817525      -0.42717056       0.49542745 </v>
   <v>      -0.45103076       0.44670496       0.49214358 </v>
   <v>      -0.41285840       0.45782711      -0.45894386 </v>
   <v>       0.45896559      -0.39533930      -0.47846576 </v>
   <v>       0.11377221      -0.37364061       0.43339667 </v>
   <v>       0.13353638      -0.39148244       0.45862316 </v>
   <v>       0.49729019      -0.37863313      -0.45517505 </v>
   <v>       0.36188455      -0.43623202       0.46127798 </v>
   <v>      -0.12395947       0.48785035       0.40592862 </v>
   <v>       0.18549152      -0.43456210      -0.47508071 </v>
   <v>       0.32424594      -0.45240705       0.43632290 </v>
   <v>      -0.40519434       0.48766055      -0.42170207 </v>
   <v>       0.20522707      -0.45157166      -0.44777956 </v>
   <v>      -0.05899453       0.47610536       0.48967674 </v>
   <v>       0.43819127      -0.44342249       0.48809519 </v>
   <v>      -0.47942843       0.47586125       0.49031585 </v>
   <v>       0.38878687      -0.46344749       0.45855357 </v>
   <v>       0.10409825      -0.44088466       0.48819633 </v>
   <v>      -0.03369315       0.47698998      -0.45374483 </v>
   <v>       0.49835580       0.47681246       0.43207402 </v>
   <v>       0.13137062      -0.46164363      -0.47824824 </v>
   <v>      -0.03572676       0.49843467       0.43152435 </v>
   <v>       0.45014531      -0.45864209       0.35413972 </v>
   <v>       0.04471533      -0.41632325       0.35205308 </v>
   <v>       0.07726611      -0.45278083       0.35413983 </v>
   <v>      -0.48053144      -0.49984517      -0.45310923 </v>
   <v>       0.37099401       0.49891562       0.43339412 </v>
   <v>       0.46710399      -0.47191725       0.48616592 </v>
   <v>       0.03929189      -0.45541700       0.36051504 </v>
   <v>       0.49012776      -0.45670930      -0.40974556 </v>
   <v>       0.10971095      -0.49996350      -0.45493154 </v>
   <v>       0.04670153      -0.47001241       0.48602209 </v>
   <v>       0.01806693      -0.49582181      -0.45650099 </v>
   <v>       0.01642374      -0.47560396       0.42850849 </v>
   <v>       0.01198825      -0.48116790       0.32239682 </v>
   <v>       0.47264356      -0.49676102       0.42878922 </v>
   <v>       0.47865699      -0.49552866       0.32272350 </v>
   <v>       0.45274065      -0.49400292       0.36063033 </v>
   <v>       0.49252098      -0.47502458      -0.45613408 </v>
   <v>       0.41369544       0.47231264       0.35196647 </v>
   <v>       0.03865783      -0.49361890      -0.41007185 </v>
  </varray>
 </structure>
 <varray name="primitive_index" >
  <v type="int" >        1 </v>
  <v type="int" >      101 </v>
  <v type="int" >      103 </v>
  <v type="int" >        4 </v>
  <v type="int" >      102 </v>
  <v type="int" >      104 </v>
  <v type="int" >       86 </v>
  <v type="int" >       42 </v>
  <v type="int" >       35 </v>
  <v type="int" >      110 </v>
  <v type="int" >       87 </v>
  <v type="int" >       43 </v>
  <v type="int" >       41 </v>
  <v type="int" >       85 </v>
  <v type="int" >       65 </v>
  <v type="int" >       47 </v>
  <v type="int" >       36 </v>
  <v type="int" >       21 </v>
  <v type="int" >       88 </v>
  <v type="int" >       64 </v>
  <v type="int" >       84 </v>
  <v type="int" >       66 </v>
  <v type="int" >       20 </v>
  <v type="int" >       34 </v>
  <v type="int" >       83 </v>
  <v type="int" >       37 </v>
  <v type="int" >       63 </v>
  <v type="int" >       67 </v>
  <v type="int" >       22 </v>
  <v type="int" >       79 </v>
  <v type="int" >       62 </v>
  <v type="int" >       40 </v>
  <v type="int" >       19 </v>
  <v type="int" >       38 </v>
  <v type="int" >       80 </v>
  <v type="int" >       78 </v>
  <v type="int" >       58 </v>
  <v type="int" >       23 </v>
  <v type="int" >       25 </v>
  <v type="int" >       81 </v>
  <v type="int" >       77 </v>
  <v type="int" >       57 </v>
  <v type="int" >       59 </v>
  <v type="int" >       27 </v>
  <v type="int" >       32 </v>
  <v type="int" >       82 </v>
  <v type="int" >       95 </v>
  <v type="int" >       90 </v>
  <v type="int" >       89 </v>
  <v type="int" >      100 </v>
  <v type="int" >       17 </v>
  <v type="int" >       56 </v>
  <v type="int" >       13 </v>
  <v type="int" >       60 </v>
  <v type="int" >       39 </v>
  <v type="int" >       96 </v>
  <v type="int" >       30 </v>
  <v type="int" >       61 </v>
  <v type="int" >       99 </v>
  <v type="int" >       91 </v>
  <v type="int" >       94 </v>
  <v type="int" >       76 </v>
  <v type="int" >       69 </v>
  <v type="int" >       26 </v>
  <v type="int" >       68 </v>
  <v type="int" >       29 </v>
  <v type="int" >       33 </v>
  <v type="int" >       71 </v>
  <v type="int" >       97 </v>
  <v type="int" >       98 </v>
  <v type="int" >       24 </v>
  <v type="int" >       92 </v>
  <v type="int" >       93 </v>
  <v type="int" >       53 </v>
  <v type="int" >       18 </v>
  <v type="int" >       75 </v>
  <v type="int" >       10 </v>
  <v type="int" >       70 </v>
  <v type="int" >       31 </v>
  <v type="int" >       72 </v>
  <v type="int" >       14 </v>
  <v type="int" >       28 </v>
  <v type="int" >       15 </v>
  <v type="int" >      107 </v>
  <v type="int" >       54 </v>
  <v type="int" >      109 </v>
  <v type="int" >       55 </v>
  <v type="int" >       74 </v>
  <v type="int" >        5 </v>
  <v type="int" >        3 </v>
  <v type="int" >       73 </v>
  <v type="int" >        2 </v>
  <v type="int" >       12 </v>
  <v type="int" >       46 </v>
  <v type="int" >       44 </v>
  <v type="int" >        6 </v>
  <v type="int" >       11 </v>
  <v type="int" >       50 </v>
  <v type="int" >      108 </v>
  <v type="int" >        9 </v>
  <v type="int" >       16 </v>
  <v type="int" >      106 </v>
  <v type="int" >      111 </v>
  <v type="int" >      105 </v>
  <v type="int" >       45 </v>
  <v type="int" >       49 </v>
  <v type="int" >        7 </v>
  <v type="int" >       51 </v>
  <v type="int" >       52 </v>
  <v type="int" >        8 </v>
  <v type="int" >       48 </v>
 </varray>
 <kpoints>
  <generation param="listgenerated">
   <i name="divisions" type="int">      20 </i>
   <v>       0.00000000       0.00000000       0.00000000 </v>
   <v>       0.50000000       0.00000000       0.00000000 </v>
   <v>       0.33333333       0.33333333       0.00000000 </v>
   <v>       0.00000000       0.00000000       0.00000000 </v>
  </generation>
  <varray name="kpointlist" >
   <v>       0.00000000       0.00000000       0.00000000 </v>
   <v>       0.02631579       0.00000000       0.00000000 </v>
   <v>       0.05263158       0.00000000       0.00000000 </v>
   <v>       0.07894737       0.00000000       0.00000000 </v>
   <v>       0.10526316       0.00000000       0.00000000 </v>
   <v>       0.13157895       0.00000000       0.00000000 </v>
   <v>       0.15789474       0.00000000       0.00000000 </v>
   <v>       0.18421053       0.00000000       0.00000000 </v>
   <v>       0.21052632       0.00000000       0.00000000 </v>
   <v>       0.23684211       0.00000000       0.00000000 </v>
   <v>       0.26315789       0.00000000       0.00000000 </v>
   <v>       0.28947368       0.00000000       0.00000000 </v>
   <v>       0.31578947       0.00000000       0.00000000 </v>
   <v>       0.34210526       0.00000000       0.00000000 </v>
   <v>       0.36842105       0.00000000       0.00000000 </v>
   <v>       0.39473684       0.00000000       0.00000000 </v>
   <v>       0.42105263       0.00000000       0.00000000 </v>
   <v>       0.44736842       0.00000000       0.00000000 </v>
   <v>       0.47368421       0.00000000       0.00000000 </v>
   <v>       0.50000000       0.00000000       0.00000000 </v>
   <v>       0.50000000       0.00000000       0.00000000 </v>
   <v>       0.49122807       0.01754386       0.00000000 </v>
   <v>       0.48245614       0.03508772       0.00000000 </v>
   <v>       0.47368421       0.05263158       0.00000000 </v>
   <v>       0.46491228       0.07017544       0.00000000 </v>
   <v>       0.45614035       0.08771930       0.00000000 </v>
   <v>       0.44736842       0.10526316       0.00000000 </v>
   <v>       0.43859649       0.12280702       0.00000000 </v>
   <v>       0.42982456       0.14035088       0.00000000 </v>
   <v>       0.42105263       0.15789474       0.00000000 </v>
   <v>       0.41228070       0.17543860       0.00000000 </v>
   <v>       0.40350877       0.19298246       0.00000000 </v>
   <v>       0.39473684       0.21052632       0.00000000 </v>
   <v>       0.38596491       0.22807018       0.00000000 </v>
   <v>       0.37719298       0.24561404       0.00000000 </v>
   <v>       0.36842105       0.26315789       0.00000000 </v>
   <v>       0.35964912       0.28070175       0.00000000 </v>
   <v>       0.35087719       0.29824561       0.00000000 </v>
   <v>       0.34210526       0.31578947       0.00000000 </v>
   <v>       0.33333333       0.33333333       0.00000000 </v>
   <v>       0.33333333       0.33333333       0.00000000 </v>
   <v>       0.31578947       0.31578947       0.00000000 </v>
   <v>       0.29824561       0.29824561       0.00000000 </v>
   <v>       0.28070175       0.28070175       0.00000000 </v>
   <v>       0.26315789       0.26315789       0.00000000 </v>
   <v>       0.24561404       0.24561404       0.00000000 </v>
   <v>       0.22807018       0.22807018       0.00000000 </v>
   <v>       0.21052632       0.21052632       0.00000000 </v>
   <v>       0.19298246       0.19298246       0.00000000 </v>
   <v>       0.17543860       0.17543860       0.00000000 </v>
   <v>       0.15789474       0.15789474       0.00000000 </v>
   <v>       0.14035088       0.14035088       0.00000000 </v>
   <v>       0.12280702       0.12280702       0.00000000 </v>
   <v>       0.10526316       0.10526316       0.00000000 </v>
   <v>       0.08771930       0.08771930       0.00000000 </v>
   <v>       0.07017544       0.07017544       0.00000000 </v>
   <v>       0.05263158       0.05263158       0.00000000 </v>
   <v>       0.03508772       0.03508772       0.00000000 </v>
   <v>       0.01754386       0.01754386       0.00000000 </v>
   <v>       0.00000000       0.00000000       0.00000000 </v>
  </varray>
  <varray name="weights" >
   <v>       0.01666667 </v>
   <v>       0.01666667 </v>
   <v>       0.01666667 </v>
   <v>       0.01666667 </v>
   <v>       0.01666667 </v>
   <v>       0.01666667 </v>
   <v>       0.01666667 </v>
   <v>       0.01666667 </v>
   <v>       0.01666667 </v>
   <v>       0.01666667 </v>
   <v>       0.01666667 </v>
   <v>       0.01666667 </v>
   <v>       0.01666667 </v>
   <v>       0.01666667 </v>
   <v>       0.01666667 </v>
   <v>       0.01666667 </v>
   <v>       0.01666667 </v>
   <v>       0.01666667 </v>
   <v>       0.01666667 </v>
   <v>       0.01666667 </v>
   <v>       0.01666667 </v>
   <v>       0.01666667 </v>
   <v>       0.01666667 </v>
   <v>       0.01666667 </v>
   <v>       0.01666667 </v>
   <v>       0.01666667 </v>
   <v>       0.01666667 </v>
   <v>       0.01666667 </v>
   <v>       0.01666667 </v>
   <v>       0.01666667 </v>
   <v>       0.01666667 </v>
   <v>       0.01666667 </v>
   <v>       0.01666667 </v>
   <v>       0.01666667 </v>
   <v>       0.01666667 </v>
   <v>       0.01666667 </v>
   <v>       0.01666667 </v>
   <v>       0.01666667 </v>
   <v>       0.01666667 </v>
   <v>       0.01666667 </v>
   <v>       0.01666667 </v>
   <v>       0.01666667 </v>
   <v>       0.01666667 </v>
   <v>       0.01666667 </v>
   <v>       0.01666667 </v>
   <v>       0.01666667 </v>
   <v>       0.01666667 </v>
   <v>       0.01666667 </v>
   <v>       0.01666667 </v>
   <v>       0.01666667 </v>
   <v>       0.01666667 </v>
   <v>       0.01666667 </v>
   <v>       0.01666667 </v>
   <v>       0.01666667 </v>
   <v>       0.01666667 </v>
   <v>       0.01666667 </v>
   <v>       0.01666667 </v>
   <v>       0.01666667 </v>
   <v>       0.01666667 </v>
   <v>       0.01666667 </v>
  </varray>
 </kpoints>
 <parameters>
  <separator name="general" >
   <i type="string" name="SYSTEM">Simulation for cell shape cell volume r</i>
   <i type="logical" name="LCOMPAT"> F  </i>
  </separator>
  <separator name="electronic" >
   <i type="string" name="PREC">high</i>
   <i name="ENMAX">    500.00000000</i>
   <i name="ENAUG">    644.87300000</i>
   <i name="EDIFF">      0.00001000</i>
   <i type="int" name="IALGO">    38</i>
   <i type="int" name="IWAVPR">    10</i>
   <i type="int" name="NBANDS">   224</i>
   <i name="NELECT">    324.00000000</i>
   <i type="int" name="TURBO">     0</i>
   <i type="int" name="IRESTART">     0</i>
   <i type="int" name="NREBOOT">     0</i>
   <i type="int" name="NMIN">     0</i>
   <i name="EREF">      0.00000000</i>
   <separator name="electronic smearing" >
    <i type="int" name="ISMEAR">     0</i>
    <i name="SIGMA">      0.01000000</i>
    <i name="KSPACING">      0.50000000</i>
    <i type="logical" name="KGAMMA"> T  </i>
   </separator>
   <separator name="electronic projectors" >
    <i type="logical" name="LREAL"> T  </i>
    <v name="ROPT">     -0.00040000     -0.00040000     -0.00040000</v>
    <i type="int" name="LMAXPAW">  -100</i>
    <i type="int" name="LMAXMIX">     2</i>
    <i type="logical" name="NLSPLINE"> F  </i>
   </separator>
   <separator name="electronic startup" >
    <i type="int" name="ISTART">     1</i>
    <i type="int" name="ICHARG">    11</i>
    <i type="int" name="INIWAV">     1</i>
   </separator>
   <separator name="electronic spin" >
    <i type="int" name="ISPIN">     1</i>
    <i type="logical" name="LNONCOLLINEAR"> F  </i>
    <v name="MAGMOM">      1.00000000      1.00000000      1.00000000      1.00000000      1.00000000      1.00000000      1.00000000      1.00000000      1.00000000      1.00000000      1.00000000      1.00000000      1.00000000      1.00000000      1.00000000      1.00000000      1.00000000      1.00000000      1.00000000      1.00000000
      1.00000000      1.00000000      1.00000000      1.00000000      1.00000000      1.00000000      1.00000000      1.00000000      1.00000000      1.00000000      1.00000000      1.00000000      1.00000000      1.00000000      1.00000000      1.00000000      1.00000000      1.00000000      1.00000000      1.00000000
      1.00000000      1.00000000      1.00000000      1.00000000      1.00000000      1.00000000      1.00000000      1.00000000      1.00000000      1.00000000      1.00000000      1.00000000      1.00000000      1.00000000      1.00000000      1.00000000      1.00000000      1.00000000      1.00000000      1.00000000
      1.00000000      1.00000000      1.00000000      1.00000000      1.00000000      1.00000000      1.00000000      1.00000000      1.00000000      1.00000000      1.00000000      1.00000000      1.00000000      1.00000000      1.00000000      1.00000000      1.00000000      1.00000000      1.00000000      1.00000000
      1.00000000      1.00000000      1.00000000      1.00000000      1.00000000      1.00000000      1.00000000      1.00000000      1.00000000      1.00000000      1.00000000      1.00000000      1.00000000      1.00000000      1.00000000      1.00000000      1.00000000      1.00000000      1.00000000      1.00000000
      1.00000000      1.00000000      1.00000000      1.00000000      1.00000000      1.00000000      1.00000000      1.00000000      1.00000000      1.00000000      1.00000000</v>
    <i name="NUPDOWN">     -1.00000000</i>
    <i type="logical" name="LSORBIT"> F  </i>
    <v name="SAXIS">      0.00000000      0.00000000      1.00000000</v>
    <i type="logical" name="LSPIRAL"> F  </i>
    <v name="QSPIRAL">      0.00000000      0.00000000      0.00000000</v>
    <i type="logical" name="LZEROZ"> F  </i>
   </separator>
   <separator name="electronic exchange-correlation" >
    <i type="logical" name="LASPH"> F  </i>
    <i type="logical" name="LMETAGGA"> F  </i>
   </separator>
   <separator name="electronic convergence" >
    <i type="int" name="NELM">   200</i>
    <i type="int" name="NELMDL">     0</i>
    <i type="int" name="NELMIN">     2</i>
    <i name="ENINI">    500.00000000</i>
    <separator name="electronic convergence detail" >
     <i type="logical" name="LDIAG"> T  </i>
     <i type="logical" name="LSUBROT"> F  </i>
     <i name="WEIMIN">      0.00000000</i>
     <i name="EBREAK">      0.00000001</i>
     <i name="DEPER">      0.30000000</i>
     <i type="int" name="NRMM">     4</i>
     <i name="TIME">      0.40000000</i>
    </separator>
   </separator>
   <separator name="electronic mixer" >
    <i name="AMIX">      0.40000000</i>
    <i name="BMIX">      1.00000000</i>
    <i name="AMIN">      0.10000000</i>
    <i name="AMIX_MAG">      1.60000000</i>
    <i name="BMIX_MAG">      1.00000000</i>
    <separator name="electronic mixer details" >
     <i type="int" name="IMIX">     4</i>
     <i type="logical" name="MIXFIRST"> F  </i>
     <i type="int" name="MAXMIX">   -45</i>
     <i name="WC">    100.00000000</i>
     <i type="int" name="INIMIX">     1</i>
     <i type="int" name="MIXPRE">     1</i>
     <i type="int" name="MREMOVE">     5</i>
    </separator>
   </separator>
   <separator name="electronic dipolcorrection" >
    <i type="logical" name="LDIPOL"> F  </i>
    <i type="logical" name="LMONO"> F  </i>
    <i type="int" name="IDIPOL">     0</i>
    <i name="EPSILON">      1.00000000</i>
    <v name="DIPOL">   -100.00000000   -100.00000000   -100.00000000</v>
    <i name="EFIELD">      0.00000000</i>
   </separator>
  </separator>
  <separator name="grids" >
   <i type="int" name="NGX">   216</i>
   <i type="int" name="NGY">   216</i>
   <i type="int" name="NGZ">   150</i>
   <i type="int" name="NGXF">   336</i>
   <i type="int" name="NGYF">   336</i>
   <i type="int" name="NGZF">   224</i>
   <i type="logical" name="ADDGRID"> F  </i>
  </separator>
  <separator name="ionic" >
   <i type="int" name="NSW">     0</i>
   <i type="int" name="IBRION">    -1</i>
   <i type="int" name="MDALGO">     0</i>
   <i type="int" name="ISIF">     2</i>
   <i name="PSTRESS">      0.00000000</i>
   <i name="EDIFFG">     -0.01000000</i>
   <i type="int" name="NFREE">     0</i>
   <i name="POTIM">      0.30000000</i>
   <i name="SMASS">     -3.00000000</i>
   <i name="SCALEE">      1.00000000</i>
  </separator>
  <separator name="ionic md" >
   <i name="TEBEG">      0.00010000</i>
   <i name="TEEND">      0.00010000</i>
   <i type="int" name="NBLOCK">     1</i>
   <i type="int" name="KBLOCK">     1</i>
   <i type="int" name="NPACO">   256</i>
   <i name="APACO">     16.00000000</i>
  </separator>
  <separator name="symmetry" >
   <i type="int" name="ISYM">     2</i>
   <i name="SYMPREC">      0.00001000</i>
  </separator>
  <separator name="dos" >
   <i type="int" name="LORBIT">     0</i>
   <v name="RWIGS">     -1.00000000     -1.00000000     -1.00000000</v>
   <i type="int" name="NEDOS">   301</i>
   <i name="EMIN">     10.00000000</i>
   <i name="EMAX">    -10.00000000</i>
   <i name="EFERMI">      0.00000000</i>
  </separator>
  <separator name="writing" >
   <i type="int" name="NWRITE">     0</i>
   <i type="logical" name="LWAVE"> F  </i>
   <i type="logical" name="LDOWNSAMPLE"> F  </i>
   <i type="logical" name="LCHARG"> F  </i>
   <i type="logical" name="LPARD"> F  </i>
   <i type="logical" name="LVTOT"> F  </i>
   <i type="logical" name="LVHAR"> F  </i>
   <i type="logical" name="LELF"> F  </i>
   <i type="logical" name="LOPTICS"> F  </i>
   <v name="STM">      0.00000000      0.00000000      0.00000000      0.00000000      0.00000000      0.00000000      0.00000000</v>
  </separator>
  <separator name="performance" >
   <i type="int" name="NPAR">    16</i>
   <i type="int" name="NSIM">     4</i>
   <i type="int" name="NBLK">    -1</i>
   <i type="logical" name="LPLANE"> T  </i>
   <i type="logical" name="LSCALAPACK"> T  </i>
   <i type="logical" name="LSCAAWARE"> F  </i>
   <i type="logical" name="LSCALU"> F  </i>
   <i type="logical" name="LASYNC"> F  </i>
   <i type="logical" name="LORBITALREAL"> F  </i>
  </separator>
  <separator name="miscellaneous" >
   <i type="int" name="IDIOT">     3</i>
   <i type="int" name="ISPECIAL">     0</i>
   <i type="logical" name="LMUSIC"> F  </i>
   <v name="POMASS">     14.00100000      1.00000000     12.01100000</v>
   <v name="DARWINR">      0.00000000      0.00000000      0.00000000</v>
   <v name="DARWINV">      1.00000000      1.00000000      1.00000000</v>
   <i type="logical" name="LCORR"> T  </i>
  </separator>
  <i type="logical" name="GGA_COMPAT"> T  </i>
  <i type="logical" name="LBERRY"> F  </i>
  <i type="int" name="ICORELEVEL">     0</i>
  <i type="logical" name="LDAU"> F  </i>
  <i type="int" name="I_CONSTRAINED_M">     0</i>
  <separator name="electronic exchange-correlation" >
   <i type="string" name="GGA">PE</i>
   <i type="int" name="VOSKOWN">     0</i>
   <i type="logical" name="LHFCALC"> F  </i>
   <i type="string" name="PRECFOCK"></i>
   <i type="logical" name="LSYMGRAD"> F  </i>
   <i type="logical" name="LHFONE"> F  </i>
   <i type="logical" name="LRHFCALC"> F  </i>
   <i type="logical" name="LTHOMAS"> F  </i>
   <i type="logical" name="LMODELHF"> F  </i>
   <i name="ENCUT4O">     -1.00000000</i>
   <i type="int" name="EXXOEP">     0</i>
   <i type="int" name="FOURORBIT">     0</i>
   <i name="AEXX">      0.00000000</i>
   <i name="HFALPHA">      0.00000000</i>
   <i name="MCALPHA">      0.00000000</i>
   <i name="ALDAX">      1.00000000</i>
   <i name="AGGAX">      1.00000000</i>
   <i name="ALDAC">      1.00000000</i>
   <i name="AGGAC">      1.00000000</i>
   <i type="int" name="NKREDX">     1</i>
   <i type="int" name="NKREDY">     1</i>
   <i type="int" name="NKREDZ">     1</i>
   <i type="logical" name="SHIFTRED"> F  </i>
   <i type="logical" name="ODDONLY"> F  </i>
   <i type="logical" name="EVENONLY"> F  </i>
   <i type="int" name="LMAXFOCK">     0</i>
   <i type="int" name="NMAXFOCKAE">     0</i>
   <i type="logical" name="LFOCKAEDFT"> F  </i>
   <i name="HFSCREEN">      0.00000000</i>
   <i name="HFSCREENC">      0.00000000</i>
   <i type="int" name="NBANDSGWLOW">     0</i>
  </separator>
  <separator name="vdW DFT" >
   <i type="logical" name="LUSE_VDW"> F  </i>
   <i name="Zab_VDW">     -0.84910000</i>
   <i name="PARAM1">      0.12340000</i>
   <i name="PARAM2">      1.00000000</i>
   <i name="PARAM3">      0.00000000</i>
  </separator>
  <separator name="model GW" >
   <i type="int" name="MODEL_GW">     0</i>
   <i name="MODEL_EPS0">     82.36159104</i>
   <i name="MODEL_ALPHA">      1.00000000</i>
  </separator>
  <separator name="linear response parameters" >
   <i type="logical" name="LEPSILON"> F  </i>
   <i type="logical" name="LRPA"> F  </i>
   <i type="logical" name="LNABLA"> F  </i>
   <i type="logical" name="LVEL"> F  </i>
   <i type="int" name="KINTER">     0</i>
   <i name="CSHIFT">      0.10000000</i>
   <i name="OMEGAMAX">     -1.00000000</i>
   <i name="DEG_THRESHOLD">      0.00200000</i>
   <i name="RTIME">     -0.10000000</i>
   <i name="WPLASMAI">      0.00000000</i>
   <v name="DFIELD">      0.00000000      0.00000000      0.00000000</v>
   <v name="WPLASMA">      0.00000000      0.00000000      0.00000000      0.00000000      0.00000000      0.00000000      0.00000000      0.00000000      0.00000000</v>
  </separator>
  <separator name="orbital magnetization" >
   <i type="logical" name="NUCIND"> F  </i>
   <v name="MAGPOS">      0.00000000      0.00000000      0.00000000</v>
   <i type="logical" name="LNICSALL"> T  </i>
   <i type="logical" name="ORBITALMAG"> F  </i>
   <i type="logical" name="LMAGBLOCH"> F  </i>
   <i type="logical" name="LCHIMAG"> F  </i>
   <i type="logical" name="LGAUGE"> T  </i>
   <i type="int" name="MAGATOM">     0</i>
   <v name="MAGDIPOL">      0.00000000      0.00000000      0.00000000</v>
   <v name="AVECCONST">      0.00000000      0.00000000      0.00000000</v>
  </separator>
  <separator name="response functions" >
   <i type="logical" name="LADDER"> F  </i>
   <i type="logical" name="LRPAFORCE"> F  </i>
   <i type="logical" name="LFXC"> F  </i>
   <i type="logical" name="LHARTREE"> T  </i>
   <i type="int" name="IBSE">     0</i>
   <v type="int" name="KPOINT">    -1     0     0     0</v>
   <i type="logical" name="LTCTE"> F  </i>
   <i type="logical" name="LTETE"> F  </i>
   <i type="logical" name="LTRIPLET"> F  </i>
   <i type="logical" name="LFXCEPS"> F  </i>
   <i type="logical" name="LFXHEG"> F  </i>
   <i type="int" name="NATURALO">     2</i>
   <i type="logical" name="L2ORDER"> F  </i>
   <i type="logical" name="LMP2LT"> F  </i>
   <i type="logical" name="LUSEW"> F  </i>
   <i name="ENCUTGW">     -2.00000000</i>
   <i name="ENCUTGWSOFT">     -2.00000000</i>
   <i name="ENCUTLF">     -1.00000000</i>
   <i type="int" name="LMAXMP2">    -1</i>
   <i name="SCISSOR">      0.00000000</i>
   <i type="int" name="NOMEGA">     0</i>
   <i type="int" name="NOMEGAR">     0</i>
   <i type="int" name="NBANDSGW">    -1</i>
   <i type="int" name="NBANDSO">    -1</i>
   <i type="int" name="NBANDSV">    -1</i>
   <i type="int" name="NELM">   200</i>
   <i type="int" name="NELMHF">     1</i>
   <i type="int" name="DIM">     3</i>
   <i type="int" name="ANTIRES">     0</i>
   <i name="OMEGAMAX">    -30.00000000</i>
   <i name="OMEGAMIN">    -30.00000000</i>
   <i name="OMEGATL">   -200.00000000</i>
   <i type="int" name="OMEGAGRID">   140</i>
   <i name="CSHIFT">     -0.10000000</i>
   <i type="logical" name="SELFENERGY"> F  </i>
   <i type="logical" name="LSPECTRAL"> F  </i>
   <i type="logical" name="LSPECTRALGW"> F  </i>
   <i type="logical" name="LSINGLES"> F  </i>
   <i type="logical" name="LFERMIGW"> F  </i>
   <i type="logical" name="ODDONLYGW"> F  </i>
   <i type="logical" name="EVENONLYGW"> F  </i>
   <i type="int" name="NKREDLFX">     1</i>
   <i type="int" name="NKREDLFY">     1</i>
   <i type="int" name="NKREDLFZ">     1</i>
   <i type="int" name="MAXMEM">  2800</i>
   <i type="int" name="TELESCOPE">     0</i>
   <i type="int" name="TAUPAR">     1</i>
   <i type="int" name="OMEGAPAR">    -1</i>
   <i name="LAMBDA">      1.00000000</i>
  </separator>
  <separator name="External order field" >
   <i name="OFIELD_KAPPA">      0.00000000</i>
   <v name="OFIELD_K">      0.00000000      0.00000000      0.00000000</v>
   <i name="OFIELD_Q6_NEAR">      0.00000000</i>
   <i name="OFIELD_Q6_FAR">      0.00000000</i>
   <i name="OFIELD_A">      0.00000000</i>
  </separator>
  <separator name="solvation model" >
   <i type="logical" name="LSOL"> F  </i>
  </separator>
 </parameters>
 <atominfo>
  <atoms>     111 </atoms>
  <types>       3 </types>
  <array name="atoms" >
   <dimension dim="1">ion</dimension>
   <field type="string">element</field>
   <field type="int">atomtype</field>
   <set>
    <rc><c>N </c><c>   1</c></rc>
    <rc><c>N </c><c>   1</c></rc>
    <rc><c>N </c><c>   1</c></rc>
    <rc><c>N </c><c>   1</c></rc>
    <rc><c>N </c><c>   1</c></rc>
    <rc><c>N </c><c>   1</c></rc>
    <rc><c>H </c><c>   2</c></rc>
    <rc><c>H </c><c>   2</c></rc>
    <rc><c>H </c><c>   2</c></rc>
    <rc><c>H </c><c>   2</c></rc>
    <rc><c>H </c><c>   2</c></rc>
    <rc><c>H </c><c>   2</c></rc>
    <rc><c>H </c><c>   2</c></rc>
    <rc><c>H </c><c>   2</c></rc>
    <rc><c>H </c><c>   2</c></rc>
    <rc><c>H </c><c>   2</c></rc>
    <rc><c>H </c><c>   2</c></rc>
    <rc><c>H </c><c>   2</c></rc>
    <rc><c>H </c><c>   2</c></rc>
    <rc><c>H </c><c>   2</c></rc>
    <rc><c>H </c><c>   2</c></rc>
    <rc><c>H </c><c>   2</c></rc>
    <rc><c>H </c><c>   2</c></rc>
    <rc><c>H </c><c>   2</c></rc>
    <rc><c>H </c><c>   2</c></rc>
    <rc><c>H </c><c>   2</c></rc>
    <rc><c>H </c><c>   2</c></rc>
    <rc><c>H </c><c>   2</c></rc>
    <rc><c>H </c><c>   2</c></rc>
    <rc><c>H </c><c>   2</c></rc>
    <rc><c>H </c><c>   2</c></rc>
    <rc><c>H </c><c>   2</c></rc>
    <rc><c>H </c><c>   2</c></rc>
    <rc><c>H </c><c>   2</c></rc>
    <rc><c>H </c><c>   2</c></rc>
    <rc><c>H </c><c>   2</c></rc>
    <rc><c>H </c><c>   2</c></rc>
    <rc><c>H </c><c>   2</c></rc>
    <rc><c>H </c><c>   2</c></rc>
    <rc><c>H </c><c>   2</c></rc>
    <rc><c>H </c><c>   2</c></rc>
    <rc><c>H </c><c>   2</c></rc>
    <rc><c>H </c><c>   2</c></rc>
    <rc><c>H </c><c>   2</c></rc>
    <rc><c>H </c><c>   2</c></rc>
    <rc><c>H </c><c>   2</c></rc>
    <rc><c>H </c><c>   2</c></rc>
    <rc><c>H </c><c>   2</c></rc>
    <rc><c>C </c><c>   3</c></rc>
    <rc><c>C </c><c>   3</c></rc>
    <rc><c>C </c><c>   3</c></rc>
    <rc><c>C </c><c>   3</c></rc>
    <rc><c>C </c><c>   3</c></rc>
    <rc><c>C </c><c>   3</c></rc>
    <rc><c>C </c><c>   3</c></rc>
    <rc><c>C </c><c>   3</c></rc>
    <rc><c>C </c><c>   3</c></rc>
    <rc><c>C </c><c>   3</c></rc>
    <rc><c>C </c><c>   3</c></rc>
    <rc><c>C </c><c>   3</c></rc>
    <rc><c>C </c><c>   3</c></rc>
    <rc><c>C </c><c>   3</c></rc>
    <rc><c>C </c><c>   3</c></rc>
    <rc><c>C </c><c>   3</c></rc>
    <rc><c>C </c><c>   3</c></rc>
    <rc><c>C </c><c>   3</c></rc>
    <rc><c>C </c><c>   3</c></rc>
    <rc><c>C </c><c>   3</c></rc>
    <rc><c>C </c><c>   3</c></rc>
    <rc><c>C </c><c>   3</c></rc>
    <rc><c>C </c><c>   3</c></rc>
    <rc><c>C </c><c>   3</c></rc>
    <rc><c>C </c><c>   3</c></rc>
    <rc><c>C </c><c>   3</c></rc>
    <rc><c>C </c><c>   3</c></rc>
    <rc><c>C </c><c>   3</c></rc>
    <rc><c>C </c><c>   3</c></rc>
    <rc><c>C </c><c>   3</c></rc>
    <rc><c>C </c><c>   3</c></rc>
    <rc><c>C </c><c>   3</c></rc>
    <rc><c>C </c><c>   3</c></rc>
    <rc><c>C </c><c>   3</c></rc>
    <rc><c>C </c><c>   3</c></rc>
    <rc><c>C </c><c>   3</c></rc>
    <rc><c>C </c><c>   3</c></rc>
    <rc><c>C </c><c>   3</c></rc>
    <rc><c>C </c><c>   3</c></rc>
    <rc><c>C </c><c>   3</c></rc>
    <rc><c>C </c><c>   3</c></rc>
    <rc><c>C </c><c>   3</c></rc>
    <rc><c>C </c><c>   3</c></rc>
    <rc><c>C </c><c>   3</c></rc>
    <rc><c>C </c><c>   3</c></rc>
    <rc><c>C </c><c>   3</c></rc>
    <rc><c>C </c><c>   3</c></rc>
    <rc><c>C </c><c>   3</c></rc>
    <rc><c>C </c><c>   3</c></rc>
    <rc><c>C </c><c>   3</c></rc>
    <rc><c>C </c><c>   3</c></rc>
    <rc><c>C </c><c>   3</c></rc>
    <rc><c>C </c><c>   3</c></rc>
    <rc><c>C </c><c>   3</c></rc>
    <rc><c>C </c><c>   3</c></rc>
    <rc><c>C </c><c>   3</c></rc>
    <rc><c>C </c><c>   3</c></rc>
    <rc><c>C </c><c>   3</c></rc>
    <rc><c>C </c><c>   3</c></rc>
    <rc><c>C </c><c>   3</c></rc>
    <rc><c>C </c><c>   3</c></rc>
    <rc><c>C </c><c>   3</c></rc>
    <rc><c>C </c><c>   3</c></rc>
   </set>
  </array>
  <array name="atomtypes" >
   <dimension dim="1">type</dimension>
   <field type="int">atomspertype</field>
   <field type="string">element</field>
   <field>mass</field>
   <field>valence</field>
   <field type="string">pseudopotential</field>
   <set>
    <rc><c>   6</c><c>N </c><c>     14.00100000</c><c>      5.00000000</c><c>  PAW_PBE N 08Apr2002                   </c></rc>
    <rc><c>  42</c><c>H </c><c>      1.00000000</c><c>      1.00000000</c><c>  PAW_PBE H 15Jun2001                   </c></rc>
    <rc><c>  63</c><c>C </c><c>     12.01100000</c><c>      4.00000000</c><c>  PAW_PBE C 08Apr2002                   </c></rc>
   </set>
  </array>
 </atominfo>
 <structure name="initialpos" >
  <crystal>
   <varray name="basis" >
    <v>      29.66274077       0.00165906       0.00000000 </v>
    <v>     -14.82983408      25.68272836       0.00000000 </v>
    <v>       0.00000000       0.00000000      20.00000000 </v>
   </varray>
   <i name="volume">  15236.89434166 </i>
   <varray name="rec_basis" >
    <v>       0.03371124       0.01946569       0.00000000 </v>
    <v>      -0.00000218       0.03893542       0.00000000 </v>
    <v>       0.00000000       0.00000000       0.05000000 </v>
   </varray>
  </crystal>
  <varray name="positions" >
   <v>       0.51968963       0.03306559       0.43287482 </v>
   <v>       0.96427324       0.49843467       0.43152435 </v>
   <v>       0.49835580       0.47681246       0.43207402 </v>
   <v>       0.49677835       0.03071408       0.54790853 </v>
   <v>       0.96630685       0.47698998       0.54625517 </v>
   <v>       0.51946856       0.50015483       0.54689077 </v>
   <v>       0.47865699       0.50447134       0.32272350 </v>
   <v>       0.41369544       0.47231264       0.35196647 </v>
   <v>       0.49012776       0.54329070       0.59025444 </v>
   <v>       0.49729019       0.62136687       0.54482495 </v>
   <v>       0.37099401       0.49891562       0.43339412 </v>
   <v>       0.45014531       0.54135791       0.35413972 </v>
   <v>       0.44879923       0.66840653       0.55195203 </v>
   <v>       0.32424594       0.54759295       0.43632290 </v>
   <v>       0.20522707       0.54842834       0.55222044 </v>
   <v>       0.10971095       0.50003650       0.54506846 </v>
   <v>       0.20918051       0.67293364       0.43623425 </v>
   <v>       0.11377221       0.62635939       0.43339667 </v>
   <v>       0.32848691       0.79166934       0.55179441 </v>
   <v>       0.37559319       0.88722822       0.54521054 </v>
   <v>       0.49834193       0.88363847       0.43418529 </v>
   <v>       0.44964617       0.78817455       0.43672439 </v>
   <v>       0.42424683       0.71674601       0.49544105 </v>
   <v>       0.27817525       0.57282944       0.49542745 </v>
   <v>       0.28036062       0.71890744       0.49535397 </v>
   <v>       0.50935722       0.39958121       0.40630511 </v>
   <v>       0.55644827       0.34969668       0.40993410 </v>
   <v>       0.59480566       0.48766055       0.57829793 </v>
   <v>       0.64468957       0.44050545       0.57948269 </v>
   <v>       0.77907252       0.44096730       0.40970210 </v>
   <v>       0.87604053       0.48785035       0.40592862 </v>
   <v>       0.78148283       0.35239116       0.57897127 </v>
   <v>       0.87852534       0.40199183       0.57754268 </v>
   <v>       0.64757524       0.21790099       0.41076653 </v>
   <v>       0.59752678       0.12092104       0.40757474 </v>
   <v>       0.50950621       0.11895218       0.57925808 </v>
   <v>       0.55685320       0.21600340       0.58003758 </v>
   <v>       0.56420640       0.28714737       0.49596106 </v>
   <v>       0.70867947       0.43309435       0.49504288 </v>
   <v>       0.71012510       0.28857838       0.49535629 </v>
   <v>       0.45559661       0.92032376       0.35480963 </v>
   <v>       0.49239557       0.98576988       0.32347748 </v>
   <v>       0.52462288       0.95307113       0.35287330 </v>
   <v>       0.07726611       0.54721917       0.35413983 </v>
   <v>       0.01198825       0.51883210       0.32239682 </v>
   <v>       0.04471533       0.58367675       0.35205308 </v>
   <v>       0.45370106       0.95815828       0.59110301 </v>
   <v>       0.03865783       0.50638110       0.58992815 </v>
   <v>       0.47264356       0.50323898       0.42878922 </v>
   <v>       0.46710399       0.52808275       0.48616592 </v>
   <v>       0.45274065       0.50599708       0.36063033 </v>
   <v>       0.49252098       0.52497542       0.54386592 </v>
   <v>       0.45896559       0.60466070       0.52153424 </v>
   <v>       0.43819127       0.55657751       0.48809519 </v>
   <v>       0.38878687       0.53655251       0.45855357 </v>
   <v>       0.35450736       0.64136833       0.49567669 </v>
   <v>       0.38181099       0.69601228       0.49578499 </v>
   <v>       0.35573197       0.72454963       0.49568476 </v>
   <v>       0.30110340       0.69720634       0.49573063 </v>
   <v>       0.27256584       0.64258612       0.49566566 </v>
   <v>       0.29988838       0.61527297       0.49576480 </v>
   <v>       0.38505650       0.78218152       0.49432774 </v>
   <v>       0.43342214       0.80960382       0.46168037 </v>
   <v>       0.46065117       0.86374262       0.45919597 </v>
   <v>       0.44054589       0.89305934       0.48875132 </v>
   <v>       0.39236984       0.86566416       0.52193705 </v>
   <v>       0.36536622       0.81152292       0.52482641 </v>
   <v>       0.38280418       0.61204211       0.49417637 </v>
   <v>       0.43181183       0.63163729       0.52469865 </v>
   <v>       0.36188455       0.56376798       0.46127798 </v>
   <v>       0.21495270       0.61437890       0.49424434 </v>
   <v>       0.18549152       0.56543790       0.52491929 </v>
   <v>       0.13137062       0.53835637       0.52175176 </v>
   <v>       0.10409825       0.55911534       0.48819633 </v>
   <v>       0.13353638       0.60851756       0.45862316 </v>
   <v>       0.18765582       0.63534040       0.46130631 </v>
   <v>       0.63315939       0.36330218       0.49562279 </v>
   <v>       0.60668982       0.30870243       0.49593138 </v>
   <v>       0.63396032       0.28136287       0.49587258 </v>
   <v>       0.68855041       0.30949903       0.49560188 </v>
   <v>       0.71588538       0.36411869       0.49536198 </v>
   <v>       0.68776473       0.39059504       0.49540663 </v>
   <v>       0.60548635       0.22370931       0.49541423 </v>
   <v>       0.56594487       0.19517602       0.54226179 </v>
   <v>       0.53933833       0.14098025       0.54196076 </v>
   <v>       0.55030011       0.11373759       0.49315536 </v>
   <v>       0.58941026       0.14208805       0.44580040 </v>
   <v>       0.61718121       0.19623631       0.44769300 </v>
   <v>       0.60397546       0.39176994       0.49484364 </v>
   <v>       0.56497638       0.38004289       0.44686488 </v>
   <v>       0.53849849       0.40770514       0.44473922 </v>
   <v>       0.54896924       0.44670496       0.49214358 </v>
   <v>       0.58714160       0.45782711       0.54105614 </v>
   <v>       0.61483524       0.43133863       0.54159358 </v>
   <v>       0.77352855       0.39325337       0.49444245 </v>
   <v>       0.80085635       0.43230620       0.44652592 </v>
   <v>       0.85499518       0.45863805       0.44429623 </v>
   <v>       0.88346195       0.44790383       0.49150070 </v>
   <v>       0.85635926       0.40974860       0.54041067 </v>
   <v>       0.80219159       0.38223932       0.54107480 </v>
   <v>       0.49349176       0.98092813       0.42955454 </v>
   <v>       0.46890168       0.95048321       0.48696007 </v>
   <v>       0.52091835       0.05617396       0.49127893 </v>
   <v>       0.49086301       0.95833451       0.36140050 </v>
   <v>       0.01642374       0.52439604       0.42850849 </v>
   <v>       0.04670153       0.52998759       0.48602209 </v>
   <v>       0.94100547       0.47610536       0.48967674 </v>
   <v>       0.03929189       0.54458300       0.36051504 </v>
   <v>       0.52057157       0.47586125       0.49031585 </v>
   <v>       0.47201124       0.97893714       0.54475089 </v>
   <v>       0.01806693       0.50417819       0.54349901 </v>
  </varray>
 </structure>
 <calculation>
  <scstep>
   <time name="dav">  563.96  570.15</time>
   <time name="total">  564.22  570.42</time>
   <energy>
    <i name="alphaZ">     32.43690512 </i>
    <i name="ewald">  38308.94177707 </i>
    <i name="hartreedc"> -47574.02492502 </i>
    <i name="XCdc">   1099.77222344 </i>
    <i name="pawpsdc">  29451.04381446 </i>
    <i name="pawaedc"> -29503.50240752 </i>
    <i name="eentropy">     -0.00000000 </i>
    <i name="bandstr">  -3967.96709859 </i>
    <i name="atom">  11381.98971700 </i>
    <i name="e_fr_energy">   -771.30999404 </i>
    <i name="e_wo_entrp">   -771.30999404 </i>
    <i name="e_0_energy">   -771.30999404 </i>
   </energy>
  </scstep>
  <scstep>
   <time name="dav">  639.14  645.93</time>
   <time name="total">  639.14  645.93</time>
   <energy>
    <i name="e_fr_energy">   -771.68288292 </i>
    <i name="e_wo_entrp">   -771.68288292 </i>
    <i name="e_0_energy">   -771.68288292 </i>
   </energy>
  </scstep>
  <scstep>
   <time name="dav">  700.09  707.63</time>
   <time name="total">  700.09  707.63</time>
   <energy>
    <i name="e_fr_energy">   -771.69242445 </i>
    <i name="e_wo_entrp">   -771.69242445 </i>
    <i name="e_0_energy">   -771.69242445 </i>
   </energy>
  </scstep>
  <scstep>
   <time name="dav">  626.44  633.25</time>
   <time name="total">  626.44  633.25</time>
   <energy>
    <i name="e_fr_energy">   -771.69257841 </i>
    <i name="e_wo_entrp">   -771.69257841 </i>
    <i name="e_0_energy">   -771.69257841 </i>
   </energy>
  </scstep>
  <scstep>
   <time name="dav">  590.04  596.43</time>
   <time name="total">  590.05  596.43</time>
   <energy>
    <i name="alphaZ">     32.43690512 </i>
    <i name="ewald">  38308.94177707 </i>
    <i name="hartreedc"> -47574.02492502 </i>
    <i name="XCdc">   1099.77222344 </i>
    <i name="pawpsdc">  29451.04381446 </i>
    <i name="pawaedc"> -29503.50240752 </i>
    <i name="eentropy">     -0.00000000 </i>
    <i name="bandstr">  -3968.34969083 </i>
    <i name="atom">  11381.98971700 </i>
    <i name="e_fr_energy">   -771.69258627 </i>
    <i name="e_wo_entrp">   -771.69258627 </i>
    <i name="e_0_energy">   -771.69258627 </i>
   </energy>
  </scstep>
  <structure>
   <crystal>
    <varray name="basis" >
     <v>      29.66274077       0.00165906       0.00000000 </v>
     <v>     -14.82983408      25.68272836       0.00000000 </v>
     <v>       0.00000000       0.00000000      20.00000000 </v>
    </varray>
    <i name="volume">  15236.89434166 </i>
    <varray name="rec_basis" >
     <v>       0.03371124       0.01946569       0.00000000 </v>
     <v>      -0.00000218       0.03893542       0.00000000 </v>
     <v>       0.00000000       0.00000000       0.05000000 </v>
    </varray>
   </crystal>
   <varray name="positions" >
    <v>       0.51968963       0.03306559       0.43287482 </v>
    <v>       0.96427324       0.49843467       0.43152435 </v>
    <v>       0.49835580       0.47681246       0.43207402 </v>
    <v>       0.49677835       0.03071408       0.54790853 </v>
    <v>       0.96630685       0.47698998       0.54625517 </v>
    <v>       0.51946856       0.50015483       0.54689077 </v>
    <v>       0.47865699       0.50447134       0.32272350 </v>
    <v>       0.41369544       0.47231264       0.35196647 </v>
    <v>       0.49012776       0.54329070       0.59025444 </v>
    <v>       0.49729019       0.62136687       0.54482495 </v>
    <v>       0.37099401       0.49891562       0.43339412 </v>
    <v>       0.45014531       0.54135791       0.35413972 </v>
    <v>       0.44879923       0.66840653       0.55195203 </v>
    <v>       0.32424594       0.54759295       0.43632290 </v>
    <v>       0.20522707       0.54842834       0.55222044 </v>
    <v>       0.10971095       0.50003650       0.54506846 </v>
    <v>       0.20918051       0.67293364       0.43623425 </v>
    <v>       0.11377221       0.62635939       0.43339667 </v>
    <v>       0.32848691       0.79166934       0.55179441 </v>
    <v>       0.37559319       0.88722822       0.54521054 </v>
    <v>       0.49834193       0.88363847       0.43418529 </v>
    <v>       0.44964617       0.78817455       0.43672439 </v>
    <v>       0.42424683       0.71674601       0.49544105 </v>
    <v>       0.27817525       0.57282944       0.49542745 </v>
    <v>       0.28036062       0.71890744       0.49535397 </v>
    <v>       0.50935722       0.39958121       0.40630511 </v>
    <v>       0.55644827       0.34969668       0.40993410 </v>
    <v>       0.59480566       0.48766055       0.57829793 </v>
    <v>       0.64468957       0.44050545       0.57948269 </v>
    <v>       0.77907252       0.44096730       0.40970210 </v>
    <v>       0.87604053       0.48785035       0.40592862 </v>
    <v>       0.78148283       0.35239116       0.57897127 </v>
    <v>       0.87852534       0.40199183       0.57754268 </v>
    <v>       0.64757524       0.21790099       0.41076653 </v>
    <v>       0.59752678       0.12092104       0.40757474 </v>
    <v>       0.50950621       0.11895218       0.57925808 </v>
    <v>       0.55685320       0.21600340       0.58003758 </v>
    <v>       0.56420640       0.28714737       0.49596106 </v>
    <v>       0.70867947       0.43309435       0.49504288 </v>
    <v>       0.71012510       0.28857838       0.49535629 </v>
    <v>       0.45559661       0.92032376       0.35480963 </v>
    <v>       0.49239557       0.98576988       0.32347748 </v>
    <v>       0.52462288       0.95307113       0.35287330 </v>
    <v>       0.07726611       0.54721917       0.35413983 </v>
    <v>       0.01198825       0.51883210       0.32239682 </v>
    <v>       0.04471533       0.58367675       0.35205308 </v>
    <v>       0.45370106       0.95815828       0.59110301 </v>
    <v>       0.03865783       0.50638110       0.58992815 </v>
    <v>       0.47264356       0.50323898       0.42878922 </v>
    <v>       0.46710399       0.52808275       0.48616592 </v>
    <v>       0.45274065       0.50599708       0.36063033 </v>
    <v>       0.49252098       0.52497542       0.54386592 </v>
    <v>       0.45896559       0.60466070       0.52153424 </v>
    <v>       0.43819127       0.55657751       0.48809519 </v>
    <v>       0.38878687       0.53655251       0.45855357 </v>
    <v>       0.35450736       0.64136833       0.49567669 </v>
    <v>       0.38181099       0.69601228       0.49578499 </v>
    <v>       0.35573197       0.72454963       0.49568476 </v>
    <v>       0.30110340       0.69720634       0.49573063 </v>
    <v>       0.27256584       0.64258612       0.49566566 </v>
    <v>       0.29988838       0.61527297       0.49576480 </v>
    <v>       0.38505650       0.78218152       0.49432774 </v>
    <v>       0.43342214       0.80960382       0.46168037 </v>
    <v>       0.46065117       0.86374262       0.45919597 </v>
    <v>       0.44054589       0.89305934       0.48875132 </v>
    <v>       0.39236984       0.86566416       0.52193705 </v>
    <v>       0.36536622       0.81152292       0.52482641 </v>
    <v>       0.38280418       0.61204211       0.49417637 </v>
    <v>       0.43181183       0.63163729       0.52469865 </v>
    <v>       0.36188455       0.56376798       0.46127798 </v>
    <v>       0.21495270       0.61437890       0.49424434 </v>
    <v>       0.18549152       0.56543790       0.52491929 </v>
    <v>       0.13137062       0.53835637       0.52175176 </v>
    <v>       0.10409825       0.55911534       0.48819633 </v>
    <v>       0.13353638       0.60851756       0.45862316 </v>
    <v>       0.18765582       0.63534040       0.46130631 </v>
    <v>       0.63315939       0.36330218       0.49562279 </v>
    <v>       0.60668982       0.30870243       0.49593138 </v>
    <v>       0.63396032       0.28136287       0.49587258 </v>
    <v>       0.68855041       0.30949903       0.49560188 </v>
    <v>       0.71588538       0.36411869       0.49536198 </v>
    <v>       0.68776473       0.39059504       0.49540663 </v>
    <v>       0.60548635       0.22370931       0.49541423 </v>
    <v>       0.56594487       0.19517602       0.54226179 </v>
    <v>       0.53933833       0.14098025       0.54196076 </v>
    <v>       0.55030011       0.11373759       0.49315536 </v>
    <v>       0.58941026       0.14208805       0.44580040 </v>
    <v>       0.61718121       0.19623631       0.44769300 </v>
    <v>       0.60397546       0.39176994       0.49484364 </v>
    <v>       0.56497638       0.38004289       0.44686488 </v>
    <v>       0.53849849       0.40770514       0.44473922 </v>
    <v>       0.54896924       0.44670496       0.49214358 </v>
    <v>       0.58714160       0.45782711       0.54105614 </v>
    <v>       0.61483524       0.43133863       0.54159358 </v>
    <v>       0.77352855       0.39325337       0.49444245 </v>
    <v>       0.80085635       0.43230620       0.44652592 </v>
    <v>       0.85499518       0.45863805       0.44429623 </v>
    <v>       0.88346195       0.44790383       0.49150070 </v>
    <v>       0.85635926       0.40974860       0.54041067 </v>
    <v>       0.80219159       0.38223932       0.54107480 </v>
    <v>       0.49349176       0.98092813       0.42955454 </v>
    <v>       0.46890168       0.95048321       0.48696007 </v>
    <v>       0.52091835       0.05617396       0.49127893 </v>
    <v>       0.49086301       0.95833451       0.36140050 </v>
    <v>       0.01642374       0.52439604       0.42850849 </v>
    <v>       0.04670153       0.52998759       0.48602209 </v>
    <v>       0.94100547       0.47610536       0.48967674 </v>
    <v>       0.03929189       0.54458300       0.36051504 </v>
    <v>       0.52057157       0.47586125       0.49031585 </v>
    <v>       0.47201124       0.97893714       0.54475089 </v>
    <v>       0.01806693       0.50417819       0.54349901 </v>
   </varray>
  </structure>
  <varray name="forces" >
   <v>      -0.00015915       0.00340844       0.00116203 </v>
   <v>      -0.00130471       0.00187382      -0.00548602 </v>
   <v>       0.00478221       0.00059184      -0.00256468 </v>
   <v>      -0.00206638       0.00158182      -0.00525878 </v>
   <v>      -0.00417928      -0.00213379       0.00411069 </v>
   <v>      -0.00164527      -0.00052918      -0.00216496 </v>
   <v>      -0.00286012      -0.00382349       0.00125642 </v>
   <v>      -0.00235172      -0.00309107      -0.00100368 </v>
   <v>      -0.00187452       0.00663679       0.00149443 </v>
   <v>      -0.00503728      -0.00096261      -0.00348716 </v>
   <v>      -0.00276483       0.00132969       0.00108925 </v>
   <v>      -0.00357437      -0.00394861      -0.00118663 </v>
   <v>       0.00094626      -0.00110574      -0.00416405 </v>
   <v>      -0.00187704      -0.00005583      -0.00020387 </v>
   <v>      -0.00111185       0.00091421      -0.00465695 </v>
   <v>       0.00409149       0.00509870      -0.00436297 </v>
   <v>      -0.00109188       0.00044894       0.00192064 </v>
   <v>       0.00141223      -0.00055795       0.00111033 </v>
   <v>      -0.00090555       0.00114824      -0.00128509 </v>
   <v>       0.00313432      -0.00187662      -0.00351645 </v>
   <v>      -0.00105897       0.00016830       0.00208625 </v>
   <v>       0.00021067       0.00129323       0.00151818 </v>
   <v>       0.00004103      -0.00026670       0.00085105 </v>
   <v>       0.00011665       0.00016256       0.00026485 </v>
   <v>       0.00483929      -0.00171343       0.00005630 </v>
   <v>      -0.00297604      -0.00203022      -0.00168239 </v>
   <v>      -0.00127074       0.00385657       0.00471168 </v>
   <v>      -0.00122429      -0.00223322      -0.00135629 </v>
   <v>      -0.00171938       0.00284242      -0.00332537 </v>
   <v>       0.00332203       0.00148503       0.00481054 </v>
   <v>       0.00031817      -0.00225386       0.00066696 </v>
   <v>       0.00236184       0.00076609      -0.00482800 </v>
   <v>      -0.00068661      -0.00170908       0.00168945 </v>
   <v>       0.00057047      -0.00228864       0.00342971 </v>
   <v>       0.00068534      -0.00154218      -0.00340143 </v>
   <v>       0.00038143       0.00142225      -0.00147735 </v>
   <v>       0.00054079      -0.00124822      -0.00307512 </v>
   <v>      -0.00560306      -0.00468606      -0.00051949 </v>
   <v>       0.00073372       0.00281038      -0.00049812 </v>
   <v>       0.00129821      -0.00214440       0.00098700 </v>
   <v>       0.00378316      -0.00070285      -0.00125084 </v>
   <v>       0.00348323       0.00120286      -0.00086808 </v>
   <v>       0.00330655       0.00021573      -0.00084713 </v>
   <v>      -0.00114156       0.00435012      -0.00073331 </v>
   <v>      -0.00560993      -0.00177647      -0.00526857 </v>
   <v>      -0.00463145       0.00583479       0.00198654 </v>
   <v>       0.00026629      -0.00523858       0.00005259 </v>
   <v>       0.00518186       0.00324136      -0.00315360 </v>
   <v>       0.00339136      -0.00178113      -0.00000108 </v>
   <v>       0.00037154       0.00726231       0.00180120 </v>
   <v>       0.00105493      -0.00033183       0.00144930 </v>
   <v>       0.00059602      -0.00681811       0.00120498 </v>
   <v>       0.00163150      -0.00431301       0.00092736 </v>
   <v>      -0.00059714      -0.00140163      -0.00067484 </v>
   <v>      -0.00074990       0.00188859       0.00271477 </v>
   <v>      -0.00202391       0.00351925       0.00018032 </v>
   <v>      -0.00316687       0.00045282      -0.00096598 </v>
   <v>      -0.00605324      -0.00344071       0.00000573 </v>
   <v>       0.00112189       0.00093345       0.00146881 </v>
   <v>       0.00221456       0.00335441      -0.00067201 </v>
   <v>      -0.00070614       0.00430572       0.00157920 </v>
   <v>       0.00072991       0.00045546      -0.00111794 </v>
   <v>      -0.00032201       0.00482701       0.00125742 </v>
   <v>      -0.00403468       0.00098708       0.00198597 </v>
   <v>      -0.00165266      -0.00336582      -0.00103477 </v>
   <v>       0.00079899       0.00389454      -0.00026594 </v>
   <v>       0.00311406       0.00558209      -0.00188793 </v>
   <v>       0.00321426      -0.00081483      -0.00179200 </v>
   <v>       0.00194888       0.00260105       0.00223979 </v>
   <v>       0.00229543      -0.00271226       0.00033600 </v>
   <v>      -0.00150935      -0.00370637      -0.00183340 </v>
   <v>      -0.00000931      -0.00082054       0.00004164 </v>
   <v>       0.00116446      -0.00452191       0.00199165 </v>
   <v>       0.00304378      -0.00355913      -0.00198573 </v>
   <v>       0.00200794      -0.00343902       0.00067650 </v>
   <v>      -0.00149505      -0.00137083       0.00185098 </v>
   <v>      -0.00155676       0.00379393       0.00143675 </v>
   <v>       0.00411860       0.00083843      -0.00043513 </v>
   <v>       0.00328115      -0.00367829       0.00104643 </v>
   <v>      -0.00100114       0.00054169       0.00171580 </v>
   <v>       0.00162964       0.00105873      -0.00308450 </v>
   <v>       0.00146932       0.00008936       0.00184998 </v>
   <v>      -0.00117560      -0.00134635       0.00217794 </v>
   <v>      -0.00002386      -0.00200534      -0.00142089 </v>
   <v>      -0.00041197       0.00202476      -0.00327606 </v>
   <v>      -0.00035393      -0.00203414       0.00001552 </v>
   <v>      -0.00072649       0.00088743       0.00410464 </v>
   <v>      -0.00345091       0.00154636       0.00568322 </v>
   <v>      -0.00108450       0.00158640      -0.00131181 </v>
   <v>       0.00115293       0.00162000       0.00275937 </v>
   <v>      -0.00200882      -0.00277830       0.00361088 </v>
   <v>       0.00207122       0.00209047       0.00263296 </v>
   <v>       0.00110393      -0.00235189       0.00045074 </v>
   <v>      -0.00317419      -0.00107343      -0.00576944 </v>
   <v>       0.00355341      -0.00088332      -0.00260266 </v>
   <v>       0.00007489      -0.00372840       0.00360820 </v>
   <v>       0.00027837       0.00077423       0.00164869 </v>
   <v>      -0.00243836       0.00135356       0.00035669 </v>
   <v>       0.00051761      -0.00132862      -0.00105225 </v>
   <v>       0.00114600      -0.00093701      -0.00144819 </v>
   <v>       0.00426221       0.00195131       0.00371274 </v>
   <v>      -0.00105735      -0.00193461       0.00960502 </v>
   <v>      -0.00308512       0.00348835       0.00134253 </v>
   <v>       0.00041247      -0.00181616      -0.00445779 </v>
   <v>       0.00633421       0.00514823       0.00397186 </v>
   <v>      -0.00241013       0.00063715       0.00070136 </v>
   <v>       0.00415301      -0.00232346      -0.00036846 </v>
   <v>      -0.00259096      -0.00131701       0.00263821 </v>
   <v>       0.00268112       0.00052133      -0.00115845 </v>
   <v>      -0.00479271       0.00202897      -0.00038268 </v>
   <v>      -0.00035782      -0.00487635      -0.00140975 </v>
  </varray>
  <varray name="stress" >
   <v>      -0.00827805       0.00182221      -0.00046168 </v>
   <v>       0.00182221      -0.00723765       0.00172898 </v>
   <v>      -0.00046168       0.00172898      -0.14068194 </v>
  </varray>
  <energy>
   <i name="e_fr_energy">   -773.79065600 </i>
   <i name="e_wo_entrp">   -773.79065600 </i>
   <i name="e_0_energy">     -0.00000000 </i>
  </energy>
  <time name="totalsc"> 3771.87 3814.27</time>
  <eigenvalues>
   <array>
    <dimension dim="1">band</dimension>
    <dimension dim="2">kpoint</dimension>
    <dimension dim="3">spin</dimension>
    <field>eigene</field>
    <field>occ</field>
    <set>
     <set comment="spin 1">
      <set comment="kpoint 1">
       <r>  -24.3213    1.0000 </r>
       <r>  -24.3198    1.0000 </r>
       <r>  -24.3197    1.0000 </r>
       <r>  -21.8867    1.0000 </r>
       <r>  -21.8501    1.0000 </r>
       <r>  -21.8495    1.0000 </r>
       <r>  -21.8475    1.0000 </r>
       <r>  -21.5438    1.0000 </r>
       <r>  -21.5435    1.0000 </r>
       <r>  -21.5193    1.0000 </r>
       <r>  -21.1701    1.0000 </r>
       <r>  -21.0881    1.0000 </r>
       <r>  -21.0878    1.0000 </r>
       <r>  -20.6897    1.0000 </r>
       <r>  -20.2528    1.0000 </r>
       <r>  -20.2526    1.0000 </r>
       <r>  -19.8819    1.0000 </r>
       <r>  -19.4690    1.0000 </r>
       <r>  -19.4689    1.0000 </r>
       <r>  -18.9503    1.0000 </r>
       <r>  -18.9501    1.0000 </r>
       <r>  -18.6545    1.0000 </r>
       <r>  -18.5260    1.0000 </r>
       <r>  -18.5258    1.0000 </r>
       <r>  -18.5066    1.0000 </r>
       <r>  -18.1131    1.0000 </r>
       <r>  -18.1127    1.0000 </r>
       <r>  -18.1109    1.0000 </r>
       <r>  -17.9938    1.0000 </r>
       <r>  -17.9931    1.0000 </r>
       <r>  -17.9842    1.0000 </r>
       <r>  -17.6910    1.0000 </r>
       <r>  -17.6904    1.0000 </r>
       <r>  -17.5296    1.0000 </r>
       <r>  -17.2196    1.0000 </r>
       <r>  -17.2178    1.0000 </r>
       <r>  -16.1662    1.0000 </r>
       <r>  -16.1658    1.0000 </r>
       <r>  -16.1577    1.0000 </r>
       <r>  -15.5077    1.0000 </r>
       <r>  -15.5071    1.0000 </r>
       <r>  -15.4114    1.0000 </r>
       <r>  -15.4040    1.0000 </r>
       <r>  -15.4037    1.0000 </r>
       <r>  -14.9999    1.0000 </r>
       <r>  -14.8490    1.0000 </r>
       <r>  -14.8117    1.0000 </r>
       <r>  -14.8103    1.0000 </r>
       <r>  -14.7230    1.0000 </r>
       <r>  -14.7217    1.0000 </r>
       <r>  -14.4698    1.0000 </r>
       <r>  -14.2425    1.0000 </r>
       <r>  -14.2412    1.0000 </r>
       <r>  -14.1327    1.0000 </r>
       <r>  -13.9442    1.0000 </r>
       <r>  -13.9438    1.0000 </r>
       <r>  -13.5315    1.0000 </r>
       <r>  -13.5311    1.0000 </r>
       <r>  -13.2444    1.0000 </r>
       <r>  -12.8143    1.0000 </r>
       <r>  -12.7206    1.0000 </r>
       <r>  -12.7199    1.0000 </r>
       <r>  -12.6593    1.0000 </r>
       <r>  -12.4830    1.0000 </r>
       <r>  -12.4822    1.0000 </r>
       <r>  -12.3576    1.0000 </r>
       <r>  -12.3573    1.0000 </r>
       <r>  -12.1573    1.0000 </r>
       <r>  -11.9405    1.0000 </r>
       <r>  -11.7540    1.0000 </r>
       <r>  -11.7245    1.0000 </r>
       <r>  -11.3899    1.0000 </r>
       <r>  -11.3006    1.0000 </r>
       <r>  -11.2345    1.0000 </r>
       <r>  -11.2330    1.0000 </r>
       <r>  -11.0385    1.0000 </r>
       <r>  -11.0376    1.0000 </r>
       <r>  -10.9950    1.0000 </r>
       <r>  -10.9931    1.0000 </r>
       <r>  -10.7627    1.0000 </r>
       <r>  -10.7509    1.0000 </r>
       <r>  -10.7488    1.0000 </r>
       <r>  -10.6174    1.0000 </r>
       <r>  -10.5763    1.0000 </r>
       <r>  -10.5756    1.0000 </r>
       <r>  -10.5208    1.0000 </r>
       <r>  -10.4709    1.0000 </r>
       <r>  -10.4697    1.0000 </r>
       <r>  -10.3878    1.0000 </r>
       <r>  -10.2722    1.0000 </r>
       <r>  -10.2713    1.0000 </r>
       <r>  -10.2442    1.0000 </r>
       <r>  -10.1642    1.0000 </r>
       <r>  -10.0958    1.0000 </r>
       <r>  -10.0948    1.0000 </r>
       <r>   -9.9134    1.0000 </r>
       <r>   -9.8659    1.0000 </r>
       <r>   -9.8650    1.0000 </r>
       <r>   -9.7690    1.0000 </r>
       <r>   -9.7592    1.0000 </r>
       <r>   -9.7583    1.0000 </r>
       <r>   -9.6722    1.0000 </r>
       <r>   -9.6368    1.0000 </r>
       <r>   -9.6349    1.0000 </r>
       <r>   -9.5880    1.0000 </r>
       <r>   -9.4879    1.0000 </r>
       <r>   -9.4871    1.0000 </r>
       <r>   -9.4539    1.0000 </r>
       <r>   -9.2308    1.0000 </r>
       <r>   -9.2297    1.0000 </r>
       <r>   -9.1307    1.0000 </r>
       <r>   -9.1302    1.0000 </r>
       <r>   -9.1152    1.0000 </r>
       <r>   -8.9737    1.0000 </r>
       <r>   -8.9723    1.0000 </r>
       <r>   -8.9152    1.0000 </r>
       <r>   -8.8416    1.0000 </r>
       <r>   -8.7628    1.0000 </r>
       <r>   -8.7624    1.0000 </r>
       <r>   -8.7102    1.0000 </r>
       <r>   -8.5873    1.0000 </r>
       <r>   -8.5856    1.0000 </r>
       <r>   -8.3922    1.0000 </r>
       <r>   -8.3909    1.0000 </r>
       <r>   -8.3900    1.0000 </r>
       <r>   -8.3172    1.0000 </r>
       <r>   -8.1216    1.0000 </r>
       <r>   -7.9453    1.0000 </r>
       <r>   -7.9452    1.0000 </r>
       <r>   -7.8739    1.0000 </r>
       <r>   -7.8735    1.0000 </r>
       <r>   -7.7053    1.0000 </r>
       <r>   -7.6443    1.0000 </r>
       <r>   -7.6418    1.0000 </r>
       <r>   -7.5099    1.0000 </r>
       <r>   -7.5078    1.0000 </r>
       <r>   -7.3925    1.0000 </r>
       <r>   -7.3183    1.0000 </r>
       <r>   -7.3174    1.0000 </r>
       <r>   -7.0587    1.0000 </r>
       <r>   -6.8673    1.0000 </r>
       <r>   -6.8646    1.0000 </r>
       <r>   -6.7915    1.0000 </r>
       <r>   -6.7852    1.0000 </r>
       <r>   -6.7849    1.0000 </r>
       <r>   -6.3846    1.0000 </r>
       <r>   -6.3839    1.0000 </r>
       <r>   -6.3816    1.0000 </r>
       <r>   -6.2725    1.0000 </r>
       <r>   -6.2693    1.0000 </r>
       <r>   -6.1320    1.0000 </r>
       <r>   -5.9644    1.0000 </r>
       <r>   -5.9642    1.0000 </r>
       <r>   -5.9628    1.0000 </r>
       <r>   -5.6251    1.0000 </r>
       <r>   -5.6248    1.0000 </r>
       <r>   -5.3647    1.0000 </r>
       <r>   -5.2716    1.0000 </r>
       <r>   -5.2632    1.0000 </r>
       <r>   -5.2622    1.0000 </r>
       <r>   -5.1517    1.0000 </r>
       <r>   -5.1501    1.0000 </r>
       <r>   -2.3868    0.0000 </r>
       <r>   -2.3847    0.0000 </r>
       <r>   -2.1805    0.0000 </r>
       <r>   -1.8310    0.0000 </r>
       <r>   -1.8302    0.0000 </r>
       <r>   -1.8007    0.0000 </r>
       <r>   -1.7742    0.0000 </r>
       <r>   -1.7730    0.0000 </r>
       <r>   -1.3190    0.0000 </r>
       <r>   -1.2829    0.0000 </r>
       <r>   -1.2827    0.0000 </r>
       <r>   -1.2123    0.0000 </r>
       <r>   -1.0067    0.0000 </r>
       <r>   -1.0045    0.0000 </r>
       <r>   -0.8445    0.0000 </r>
       <r>   -0.7940    0.0000 </r>
       <r>   -0.7922    0.0000 </r>
       <r>   -0.4760    0.0000 </r>
       <r>   -0.3406    0.0000 </r>
       <r>   -0.3382    0.0000 </r>
       <r>   -0.2469    0.0000 </r>
       <r>   -0.2460    0.0000 </r>
       <r>   -0.1412    0.0000 </r>
       <r>   -0.0940    0.0000 </r>
       <r>    0.0081    0.0000 </r>
       <r>    0.0086    0.0000 </r>
       <r>    0.0565    0.0000 </r>
       <r>    0.1525    0.0000 </r>
       <r>    0.1535    0.0000 </r>
       <r>    0.2841    0.0000 </r>
       <r>    0.2920    0.0000 </r>
       <r>    0.2941    0.0000 </r>
       <r>    0.3638    0.0000 </r>
       <r>    0.3777    0.0000 </r>
       <r>    0.3785    0.0000 </r>
       <r>    0.4413    0.0000 </r>
       <r>    0.4924    0.0000 </r>
       <r>    0.5151    0.0000 </r>
       <r>    0.5159    0.0000 </r>
       <r>    0.5253    0.0000 </r>
       <r>    0.5676    0.0000 </r>
       <r>    0.5694    0.0000 </r>
       <r>    0.6742    0.0000 </r>
       <r>    0.6758    0.0000 </r>
       <r>    0.6954    0.0000 </r>
       <r>    0.7288    0.0000 </r>
       <r>    0.7429    0.0000 </r>
       <r>    0.7464    0.0000 </r>
       <r>    0.7783    0.0000 </r>
       <r>    0.7944    0.0000 </r>
       <r>    0.7950    0.0000 </r>
       <r>    0.8697    0.0000 </r>
       <r>    0.8975    0.0000 </r>
       <r>    0.9091    0.0000 </r>
       <r>    0.9259    0.0000 </r>
       <r>    0.9269    0.0000 </r>
       <r>    0.9400    0.0000 </r>
       <r>    0.9484    0.0000 </r>
       <r>    0.9510    0.0000 </r>
       <r>    0.9971    0.0000 </r>
       <r>    1.0003    0.0000 </r>
       <r>    1.0654    0.0000 </r>
      </set>
      <set comment="kpoint 2">
       <r>  -24.3213    1.0000 </r>
       <r>  -24.3198    1.0000 </r>
       <r>  -24.3197    1.0000 </r>
       <r>  -21.8867    1.0000 </r>
       <r>  -21.8501    1.0000 </r>
       <r>  -21.8495    1.0000 </r>
       <r>  -21.8475    1.0000 </r>
       <r>  -21.5439    1.0000 </r>
       <r>  -21.5436    1.0000 </r>
       <r>  -21.5192    1.0000 </r>
       <r>  -21.1704    1.0000 </r>
       <r>  -21.0881    1.0000 </r>
       <r>  -21.0874    1.0000 </r>
       <r>  -20.6899    1.0000 </r>
       <r>  -20.2527    1.0000 </r>
       <r>  -20.2523    1.0000 </r>
       <r>  -19.8826    1.0000 </r>
       <r>  -19.4690    1.0000 </r>
       <r>  -19.4681    1.0000 </r>
       <r>  -18.9516    1.0000 </r>
       <r>  -18.9501    1.0000 </r>
       <r>  -18.6532    1.0000 </r>
       <r>  -18.5260    1.0000 </r>
       <r>  -18.5258    1.0000 </r>
       <r>  -18.5066    1.0000 </r>
       <r>  -18.1140    1.0000 </r>
       <r>  -18.1131    1.0000 </r>
       <r>  -18.1099    1.0000 </r>
       <r>  -17.9991    1.0000 </r>
       <r>  -17.9932    1.0000 </r>
       <r>  -17.9791    1.0000 </r>
       <r>  -17.6913    1.0000 </r>
       <r>  -17.6904    1.0000 </r>
       <r>  -17.5288    1.0000 </r>
       <r>  -17.2197    1.0000 </r>
       <r>  -17.2181    1.0000 </r>
       <r>  -16.1668    1.0000 </r>
       <r>  -16.1659    1.0000 </r>
       <r>  -16.1570    1.0000 </r>
       <r>  -15.5079    1.0000 </r>
       <r>  -15.5072    1.0000 </r>
       <r>  -15.4129    1.0000 </r>
       <r>  -15.4037    1.0000 </r>
       <r>  -15.4016    1.0000 </r>
       <r>  -14.9999    1.0000 </r>
       <r>  -14.8524    1.0000 </r>
       <r>  -14.8113    1.0000 </r>
       <r>  -14.8097    1.0000 </r>
       <r>  -14.7220    1.0000 </r>
       <r>  -14.7204    1.0000 </r>
       <r>  -14.4698    1.0000 </r>
       <r>  -14.2426    1.0000 </r>
       <r>  -14.2414    1.0000 </r>
       <r>  -14.1330    1.0000 </r>
       <r>  -13.9442    1.0000 </r>
       <r>  -13.9436    1.0000 </r>
       <r>  -13.5315    1.0000 </r>
       <r>  -13.5311    1.0000 </r>
       <r>  -13.2444    1.0000 </r>
       <r>  -12.8143    1.0000 </r>
       <r>  -12.7206    1.0000 </r>
       <r>  -12.7198    1.0000 </r>
       <r>  -12.6594    1.0000 </r>
       <r>  -12.4830    1.0000 </r>
       <r>  -12.4822    1.0000 </r>
       <r>  -12.3580    1.0000 </r>
       <r>  -12.3574    1.0000 </r>
       <r>  -12.1566    1.0000 </r>
       <r>  -11.9407    1.0000 </r>
       <r>  -11.7542    1.0000 </r>
       <r>  -11.7244    1.0000 </r>
       <r>  -11.3900    1.0000 </r>
       <r>  -11.3006    1.0000 </r>
       <r>  -11.2344    1.0000 </r>
       <r>  -11.2330    1.0000 </r>
       <r>  -11.0385    1.0000 </r>
       <r>  -11.0374    1.0000 </r>
       <r>  -10.9950    1.0000 </r>
       <r>  -10.9931    1.0000 </r>
       <r>  -10.7641    1.0000 </r>
       <r>  -10.7507    1.0000 </r>
       <r>  -10.7474    1.0000 </r>
       <r>  -10.6177    1.0000 </r>
       <r>  -10.5762    1.0000 </r>
       <r>  -10.5757    1.0000 </r>
       <r>  -10.5210    1.0000 </r>
       <r>  -10.4707    1.0000 </r>
       <r>  -10.4694    1.0000 </r>
       <r>  -10.3878    1.0000 </r>
       <r>  -10.2722    1.0000 </r>
       <r>  -10.2713    1.0000 </r>
       <r>  -10.2442    1.0000 </r>
       <r>  -10.1643    1.0000 </r>
       <r>  -10.0958    1.0000 </r>
       <r>  -10.0947    1.0000 </r>
       <r>   -9.9134    1.0000 </r>
       <r>   -9.8659    1.0000 </r>
       <r>   -9.8650    1.0000 </r>
       <r>   -9.7690    1.0000 </r>
       <r>   -9.7592    1.0000 </r>
       <r>   -9.7583    1.0000 </r>
       <r>   -9.6722    1.0000 </r>
       <r>   -9.6368    1.0000 </r>
       <r>   -9.6349    1.0000 </r>
       <r>   -9.5878    1.0000 </r>
       <r>   -9.4883    1.0000 </r>
       <r>   -9.4872    1.0000 </r>
       <r>   -9.4535    1.0000 </r>
       <r>   -9.2308    1.0000 </r>
       <r>   -9.2297    1.0000 </r>
       <r>   -9.1307    1.0000 </r>
       <r>   -9.1302    1.0000 </r>
       <r>   -9.1152    1.0000 </r>
       <r>   -8.9737    1.0000 </r>
       <r>   -8.9723    1.0000 </r>
       <r>   -8.9152    1.0000 </r>
       <r>   -8.8415    1.0000 </r>
       <r>   -8.7631    1.0000 </r>
       <r>   -8.7623    1.0000 </r>
       <r>   -8.7100    1.0000 </r>
       <r>   -8.5872    1.0000 </r>
       <r>   -8.5855    1.0000 </r>
       <r>   -8.3946    1.0000 </r>
       <r>   -8.3914    1.0000 </r>
       <r>   -8.3873    1.0000 </r>
       <r>   -8.3171    1.0000 </r>
       <r>   -8.1217    1.0000 </r>
       <r>   -7.9453    1.0000 </r>
       <r>   -7.9452    1.0000 </r>
       <r>   -7.8738    1.0000 </r>
       <r>   -7.8735    1.0000 </r>
       <r>   -7.7053    1.0000 </r>
       <r>   -7.6443    1.0000 </r>
       <r>   -7.6417    1.0000 </r>
       <r>   -7.5099    1.0000 </r>
       <r>   -7.5078    1.0000 </r>
       <r>   -7.3925    1.0000 </r>
       <r>   -7.3183    1.0000 </r>
       <r>   -7.3174    1.0000 </r>
       <r>   -7.0594    1.0000 </r>
       <r>   -6.8668    1.0000 </r>
       <r>   -6.8642    1.0000 </r>
       <r>   -6.7915    1.0000 </r>
       <r>   -6.7851    1.0000 </r>
       <r>   -6.7848    1.0000 </r>
       <r>   -6.3847    1.0000 </r>
       <r>   -6.3839    1.0000 </r>
       <r>   -6.3816    1.0000 </r>
       <r>   -6.2741    1.0000 </r>
       <r>   -6.2699    1.0000 </r>
       <r>   -6.1297    1.0000 </r>
       <r>   -5.9644    1.0000 </r>
       <r>   -5.9642    1.0000 </r>
       <r>   -5.9628    1.0000 </r>
       <r>   -5.6257    1.0000 </r>
       <r>   -5.6250    1.0000 </r>
       <r>   -5.3643    1.0000 </r>
       <r>   -5.2716    1.0000 </r>
       <r>   -5.2631    1.0000 </r>
       <r>   -5.2622    1.0000 </r>
       <r>   -5.1517    1.0000 </r>
       <r>   -5.1503    1.0000 </r>
       <r>   -2.3866    0.0000 </r>
       <r>   -2.3847    0.0000 </r>
       <r>   -2.1810    0.0000 </r>
       <r>   -1.8308    0.0000 </r>
       <r>   -1.8301    0.0000 </r>
       <r>   -1.8007    0.0000 </r>
       <r>   -1.7742    0.0000 </r>
       <r>   -1.7728    0.0000 </r>
       <r>   -1.3190    0.0000 </r>
       <r>   -1.2830    0.0000 </r>
       <r>   -1.2827    0.0000 </r>
       <r>   -1.2136    0.0000 </r>
       <r>   -1.0061    0.0000 </r>
       <r>   -1.0037    0.0000 </r>
       <r>   -0.8445    0.0000 </r>
       <r>   -0.7939    0.0000 </r>
       <r>   -0.7922    0.0000 </r>
       <r>   -0.4760    0.0000 </r>
       <r>   -0.3412    0.0000 </r>
       <r>   -0.3385    0.0000 </r>
       <r>   -0.2470    0.0000 </r>
       <r>   -0.2463    0.0000 </r>
       <r>   -0.1401    0.0000 </r>
       <r>   -0.0938    0.0000 </r>
       <r>    0.0082    0.0000 </r>
       <r>    0.0086    0.0000 </r>
       <r>    0.0566    0.0000 </r>
       <r>    0.1525    0.0000 </r>
       <r>    0.1532    0.0000 </r>
       <r>    0.2797    0.0000 </r>
       <r>    0.2937    0.0000 </r>
       <r>    0.2958    0.0000 </r>
       <r>    0.3639    0.0000 </r>
       <r>    0.3778    0.0000 </r>
       <r>    0.3788    0.0000 </r>
       <r>    0.4414    0.0000 </r>
       <r>    0.4910    0.0000 </r>
       <r>    0.5149    0.0000 </r>
       <r>    0.5169    0.0000 </r>
       <r>    0.5268    0.0000 </r>
       <r>    0.5679    0.0000 </r>
       <r>    0.5697    0.0000 </r>
       <r>    0.6733    0.0000 </r>
       <r>    0.6752    0.0000 </r>
       <r>    0.6963    0.0000 </r>
       <r>    0.7278    0.0000 </r>
       <r>    0.7431    0.0000 </r>
       <r>    0.7460    0.0000 </r>
       <r>    0.7782    0.0000 </r>
       <r>    0.7947    0.0000 </r>
       <r>    0.7950    0.0000 </r>
       <r>    0.8695    0.0000 </r>
       <r>    0.8976    0.0000 </r>
       <r>    0.9092    0.0000 </r>
       <r>    0.9237    0.0000 </r>
       <r>    0.9262    0.0000 </r>
       <r>    0.9412    0.0000 </r>
       <r>    0.9497    0.0000 </r>
       <r>    0.9523    0.0000 </r>
       <r>    0.9982    0.0000 </r>
       <r>    1.0011    0.0000 </r>
       <r>    1.0635    0.0000 </r>
      </set>
      <set comment="kpoint 3">
       <r>  -24.3213    1.0000 </r>
       <r>  -24.3198    1.0000 </r>
       <r>  -24.3197    1.0000 </r>
       <r>  -21.8867    1.0000 </r>
       <r>  -21.8501    1.0000 </r>
       <r>  -21.8495    1.0000 </r>
       <r>  -21.8475    1.0000 </r>
       <r>  -21.5441    1.0000 </r>
       <r>  -21.5438    1.0000 </r>
       <r>  -21.5187    1.0000 </r>
       <r>  -21.1715    1.0000 </r>
       <r>  -21.0881    1.0000 </r>
       <r>  -21.0861    1.0000 </r>
       <r>  -20.6906    1.0000 </r>
       <r>  -20.2527    1.0000 </r>
       <r>  -20.2511    1.0000 </r>
       <r>  -19.8846    1.0000 </r>
       <r>  -19.4690    1.0000 </r>
       <r>  -19.4655    1.0000 </r>
[...]
       <r>   -20.9363     0.0000    26.0000 </r>
       <r>   -20.8432     0.0000    26.0000 </r>
       <r>   -20.7501     0.0034    26.0003 </r>
       <r>   -20.6571    21.4819    28.0000 </r>
       <r>   -20.5640     0.0000    28.0000 </r>
       <r>   -20.4709     0.0000    28.0000 </r>
       <r>   -20.3778     0.0000    28.0000 </r>
       <r>   -20.2847     0.0001    28.0000 </r>
       <r>   -20.1916    31.3914    30.9221 </r>
       <r>   -20.0985     9.5929    32.0000 </r>
       <r>   -20.0054     1.1282    32.1050 </r>
       <r>   -19.9124    10.9852    33.5261 </r>
       <r>   -19.8193     3.9272    34.0000 </r>
       <r>   -19.7262     0.0000    34.0000 </r>
       <r>   -19.6331     0.0000    34.0000 </r>
       <r>   -19.5400     0.0000    34.0000 </r>
       <r>   -19.4469    25.2571    36.3511 </r>
       <r>   -19.3538     4.6911    36.8709 </r>
       <r>   -19.2608    11.0022    37.9579 </r>
       <r>   -19.1677     5.2020    38.4842 </r>
       <r>   -19.0746     6.2414    39.2497 </r>
       <r>   -18.9815     3.8661    39.6602 </r>
       <r>   -18.8884    24.3427    42.0000 </r>
       <r>   -18.7953     0.0000    42.0000 </r>
       <r>   -18.7022     0.0000    42.0000 </r>
       <r>   -18.6091     4.6617    42.4339 </r>
       <r>   -18.5161    53.0726    47.4407 </r>
       <r>   -18.4230     9.2109    49.2927 </r>
       <r>   -18.3299     4.9965    50.0000 </r>
       <r>   -18.2368    10.3217    50.9608 </r>
       <r>   -18.1437     4.7390    51.5079 </r>
       <r>   -18.0506    63.2371    57.5208 </r>
       <r>   -17.9575    28.3737    60.2750 </r>
       <r>   -17.8645    17.1777    62.0000 </r>
       <r>   -17.7714     0.0000    62.0000 </r>
       <r>   -17.6783    42.3946    65.9464 </r>
       <r>   -17.5852     0.0000    66.0000 </r>
       <r>   -17.4921     5.3250    66.4957 </r>
       <r>   -17.3990     7.5667    67.2721 </r>
       <r>   -17.3059    11.9830    68.6505 </r>
       <r>   -17.2128    27.1571    71.4959 </r>
       <r>   -17.1198     0.0000    72.0000 </r>
       <r>   -17.0267     0.0000    72.0000 </r>
       <r>   -16.9336     0.0000    72.0000 </r>
       <r>   -16.8405     0.0000    72.0000 </r>
       <r>   -16.7474     0.0000    72.0000 </r>
       <r>   -16.6543     0.0000    72.0000 </r>
       <r>   -16.5612     0.0000    72.0000 </r>
       <r>   -16.4682     0.0000    72.0000 </r>
       <r>   -16.3751     0.0000    72.0000 </r>
       <r>   -16.2820     0.0000    72.0000 </r>
       <r>   -16.1889     9.7944    72.9117 </r>
       <r>   -16.0958    46.8750    78.0000 </r>
       <r>   -16.0027     0.0000    78.0000 </r>
       <r>   -15.9096     0.0000    78.0000 </r>
       <r>   -15.8165     0.0000    78.0000 </r>
       <r>   -15.7235     0.0000    78.0000 </r>
       <r>   -15.6304     0.0000    78.0000 </r>
       <r>   -15.5373    10.1367    78.9436 </r>
       <r>   -15.4442    32.2807    82.4408 </r>
       <r>   -15.3511    28.4057    85.9817 </r>
       <r>   -15.2580    16.4437    88.0000 </r>
       <r>   -15.1649     0.0000    88.0000 </r>
       <r>   -15.0719     1.0155    88.0945 </r>
       <r>   -14.9788    23.0583    90.5825 </r>
       <r>   -14.8857    17.8356    92.6292 </r>
       <r>   -14.7926    19.8816    94.8520 </r>
       <r>   -14.6995     7.3009    96.6796 </r>
       <r>   -14.6064    18.1966    98.5947 </r>
       <r>   -14.5133    11.4319   100.0000 </r>
       <r>   -14.4202    21.4853   102.0000 </r>
       <r>   -14.3272     0.0000   102.0000 </r>
       <r>   -14.2341    41.9966   105.9093 </r>
       <r>   -14.1410    17.6828   107.6460 </r>
       <r>   -14.0479     0.0000   108.0000 </r>
       <r>   -13.9548     0.5652   108.0526 </r>
       <r>   -13.8617    34.9431   112.0000 </r>
       <r>   -13.7686     0.0000   112.0000 </r>
       <r>   -13.6756     0.0000   112.0000 </r>
       <r>   -13.5825     0.0000   112.0000 </r>
       <r>   -13.4894    42.9707   116.0000 </r>
       <r>   -13.3963     0.0000   116.0000 </r>
       <r>   -13.3032     0.0000   116.0000 </r>
       <r>   -13.2101    21.4853   118.0000 </r>
       <r>   -13.1170     0.0000   118.0000 </r>
       <r>   -13.0239     0.0000   118.0000 </r>
       <r>   -12.9309     0.0000   118.0000 </r>
       <r>   -12.8378     0.0529   118.0049 </r>
       <r>   -12.7447    21.4425   120.0009 </r>
       <r>   -12.6516    63.1396   125.8784 </r>
       <r>   -12.5585     0.0000   126.0000 </r>
       <r>   -12.4654    41.3186   129.8462 </r>
       <r>   -12.3723    18.2532   131.6991 </r>
       <r>   -12.2792     7.3556   134.0000 </r>
       <r>   -12.1862     0.0000   134.0000 </r>
       <r>   -12.0931     8.2558   134.7685 </r>
       <r>   -12.0000    12.9870   136.0763 </r>
       <r>   -11.9069    16.8044   138.0000 </r>
       <r>   -11.8138     0.0106   138.0010 </r>
       <r>   -11.7207    34.2646   141.1906 </r>
       <r>   -11.6276     0.0000   142.0000 </r>
       <r>   -11.5346     0.0000   142.0000 </r>
       <r>   -11.4415     0.0000   142.0000 </r>
       <r>   -11.3484    21.4853   144.0000 </r>
       <r>   -11.2553    21.5006   146.0014 </r>
       <r>   -11.1622    42.9555   150.0000 </r>
       <r>   -11.0691     0.0001   150.0000 </r>
       <r>   -10.9760    85.6205   157.9701 </r>
       <r>   -10.8829     0.0000   158.0000 </r>
       <r>   -10.7899    15.3832   159.4320 </r>
       <r>   -10.6968    32.4786   162.7244 </r>
       <r>   -10.6037    45.7305   167.1249 </r>
       <r>   -10.5106    49.4255   171.9693 </r>
       <r>   -10.4175    42.5585   175.9616 </r>
       <r>   -10.3244    10.7089   178.0000 </r>
       <r>   -10.2313    64.2511   183.9809 </r>
       <r>   -10.1383    21.4836   185.9998 </r>
       <r>   -10.0452    42.9707   190.0000 </r>
       <r>    -9.9521     0.0000   190.0000 </r>
       <r>    -9.8590    56.2423   195.2354 </r>
       <r>    -9.7659    21.7816   198.0276 </r>
       <r>    -9.6728    14.8461   203.3820 </r>
       <r>    -9.5797    48.1832   208.4852 </r>
       <r>    -9.4866    43.4407   212.9486 </r>
       <r>    -9.3936    21.4852   216.0000 </r>
       <r>    -9.3005     0.0000   216.0000 </r>
       <r>    -9.2074    42.9553   219.9986 </r>
       <r>    -9.1143    49.9126   224.6462 </r>
       <r>    -9.0212     0.0000   226.0000 </r>
       <r>    -8.9281    43.4316   230.0429 </r>
       <r>    -8.8350    25.6156   232.6851 </r>
       <r>    -8.7420    42.9272   237.9960 </r>
       <r>    -8.6489    21.4853   240.0000 </r>
       <r>    -8.5558    42.2598   243.9338 </r>
       <r>    -8.4627     0.2190   244.0204 </r>
       <r>    -8.3696    46.6907   248.6547 </r>
       <r>    -8.2765    21.4320   251.9950 </r>
       <r>    -8.1834     0.0000   252.0000 </r>
       <r>    -8.0903    21.4853   254.0000 </r>
       <r>    -7.9973     0.0000   254.0000 </r>
       <r>    -7.9042    42.9709   258.0000 </r>
       <r>    -7.8111    42.9704   262.0000 </r>
       <r>    -7.7180     0.7312   262.0681 </r>
       <r>    -7.6249    34.0641   267.1709 </r>
       <r>    -7.5318     0.0143   268.0013 </r>
       <r>    -7.4387    42.9564   272.0000 </r>
       <r>    -7.3457    21.4900   274.0004 </r>
       <r>    -7.2526    42.9660   278.0000 </r>
       <r>    -7.1595     0.0000   278.0000 </r>
       <r>    -7.0664    18.9618   279.7651 </r>
       <r>    -6.9733     0.0000   280.0000 </r>
       <r>    -6.8802     0.5865   280.0546 </r>
       <r>    -6.7871    62.7259   286.2799 </r>
       <r>    -6.6940    13.0710   289.7839 </r>
       <r>    -6.6010     0.0000   290.0000 </r>
       <r>    -6.5079     0.0309   290.0029 </r>
       <r>    -6.4148    13.2106   291.2326 </r>
       <r>    -6.3217    67.8944   297.6206 </r>
       <r>    -6.2286    24.7076   300.0000 </r>
       <r>    -6.1355     0.3803   300.0354 </r>
       <r>    -6.0424     4.0405   300.5434 </r>
       <r>    -5.9494    66.0508   306.7490 </r>
       <r>    -5.8563    11.0723   307.9976 </r>
       <r>    -5.7632     8.2800   308.7708 </r>
       <r>    -5.6701     5.2696   309.4584 </r>
       <r>    -5.5770    26.1389   312.0000 </r>
       <r>    -5.4839     0.0000   312.0000 </r>
       <r>    -5.3908     0.0002   312.0000 </r>
       <r>    -5.2977    21.4544   313.9971 </r>
       <r>    -5.2047    65.3576   320.0846 </r>
       <r>    -5.1116    37.9051   324.0000 </r>
       <r>    -5.0185     0.0000   324.0000 </r>
       <r>    -4.9254     0.0000   324.0000 </r>
       <r>    -4.8323     0.0000   324.0000 </r>
       <r>    -4.7392     0.0000   324.0000 </r>
       <r>    -4.6461     0.0000   324.0000 </r>
       <r>    -4.5531     0.0000   324.0000 </r>
       <r>    -4.4600     0.0000   324.0000 </r>
       <r>    -4.3669     0.0000   324.0000 </r>
       <r>    -4.2738     0.0000   324.0000 </r>
       <r>    -4.1807     0.0000   324.0000 </r>
       <r>    -4.0876     0.0000   324.0000 </r>
       <r>    -3.9945     0.0000   324.0000 </r>
       <r>    -3.9014     0.0000   324.0000 </r>
       <r>    -3.8084     0.0000   324.0000 </r>
       <r>    -3.7153     0.0000   324.0000 </r>
       <r>    -3.6222     0.0000   324.0000 </r>
       <r>    -3.5291     0.0000   324.0000 </r>
       <r>    -3.4360     0.0000   324.0000 </r>
       <r>    -3.3429     0.0000   324.0000 </r>
       <r>    -3.2498     0.0000   324.0000 </r>
       <r>    -3.1568     0.0000   324.0000 </r>
       <r>    -3.0637     0.0000   324.0000 </r>
       <r>    -2.9706     0.0000   324.0000 </r>
       <r>    -2.8775     0.0000   324.0000 </r>
       <r>    -2.7844     0.0000   324.0000 </r>
       <r>    -2.6913     0.0000   324.0000 </r>
       <r>    -2.5982     0.0000   324.0000 </r>
       <r>    -2.5051     0.0000   324.0000 </r>
       <r>    -2.4121     0.0020   324.0002 </r>
       <r>    -2.3190    42.9686   328.0000 </r>
       <r>    -2.2259    13.1220   329.2215 </r>
       <r>    -2.1328     6.7908   330.0000 </r>
       <r>    -2.0397     0.0000   330.0000 </r>
       <r>    -1.9466     0.0000   330.0000 </r>
       <r>    -1.8535     0.0137   330.0013 </r>
       <r>    -1.7605    89.6967   338.3508 </r>
       <r>    -1.6674    15.3700   339.9992 </r>
       <r>    -1.5743     0.0000   340.0000 </r>
       <r>    -1.4812     0.0000   340.0000 </r>
       <r>    -1.3881     4.2692   340.3974 </r>
       <r>    -1.2950    29.0640   343.6398 </r>
       <r>    -1.2019    21.3817   347.9914 </r>
       <r>    -1.1088     0.0000   348.0000 </r>
       <r>    -1.0158     1.3910   348.1295 </r>
       <r>    -0.9227     5.9428   350.6875 </r>
       <r>    -0.8296    33.9958   353.9648 </r>
       <r>    -0.7365    42.6315   357.9684 </r>
       <r>    -0.6434     0.0000   358.0000 </r>
       <r>    -0.5503     0.0000   358.0000 </r>
       <r>    -0.4572    32.2176   360.9990 </r>
       <r>    -0.3642     5.4236   361.6386 </r>
       <r>    -0.2711    28.4311   364.3816 </r>
       <r>    -0.1780    28.1523   368.0000 </r>
       <r>    -0.0849    11.3937   369.0606 </r>
       <r>     0.0082    31.6393   372.5227 </r>
       <r>     0.1013    51.6575   379.0823 </r>
       <r>     0.1944    42.9111   383.2289 </r>
       <r>     0.2875    25.4297   385.7340 </r>
       <r>     0.3805    43.8148   390.2132 </r>
       <r>     0.4736    45.8399   396.3124 </r>
       <r>     0.5667    65.0999   402.8352 </r>
       <r>     0.6598    68.8034   411.0823 </r>
       <r>     0.7529    70.0918   419.2091 </r>
       <r>     0.8460    75.8448   426.9999 </r>
       <r>     0.9391    92.0013   436.2701 </r>
       <r>     1.0321    75.4594   444.5345 </r>
       <r>     1.1252    19.9889   448.0000 </r>
       <r>     1.2183     0.0000   448.0000 </r>
       <r>     1.3114     0.0000   448.0000 </r>
       <r>     1.4045     0.0000   448.0000 </r>
       <r>     1.4976     0.0000   448.0000 </r>
       <r>     1.5907     0.0000   448.0000 </r>
       <r>     1.6838     0.0000   448.0000 </r>
       <r>     1.7768     0.0000   448.0000 </r>
       <r>     1.8699     0.0000   448.0000 </r>
       <r>     1.9630     0.0000   448.0000 </r>
       <r>     2.0561     0.0000   448.0000 </r>
       <r>     2.1492     0.0000   448.0000 </r>
       <r>     2.2423     0.0000   448.0000 </r>
       <r>     2.3354     0.0000   448.0000 </r>
      </set>
     </set>
    </array>
   </total>
  </dos>
 </calculation>
 <structure name="finalpos" >
  <crystal>
   <varray name="basis" >
    <v>      29.66274077       0.00165906       0.00000000 </v>
    <v>     -14.82983408      25.68272836       0.00000000 </v>
    <v>       0.00000000       0.00000000      20.00000000 </v>
   </varray>
   <i name="volume">  15236.89434166 </i>
   <varray name="rec_basis" >
    <v>       0.03371124       0.01946569       0.00000000 </v>
    <v>      -0.00000218       0.03893542       0.00000000 </v>
    <v>       0.00000000       0.00000000       0.05000000 </v>
   </varray>
  </crystal>
  <varray name="positions" >
   <v>       0.51968963       0.03306559       0.43287482 </v>
   <v>       0.96427324       0.49843467       0.43152435 </v>
   <v>       0.49835580       0.47681246       0.43207402 </v>
   <v>       0.49677835       0.03071408       0.54790853 </v>
   <v>       0.96630685       0.47698998       0.54625517 </v>
   <v>       0.51946856       0.50015483       0.54689077 </v>
   <v>       0.47865699       0.50447134       0.32272350 </v>
   <v>       0.41369544       0.47231264       0.35196647 </v>
   <v>       0.49012776       0.54329070       0.59025444 </v>
   <v>       0.49729019       0.62136687       0.54482495 </v>
   <v>       0.37099401       0.49891562       0.43339412 </v>
   <v>       0.45014531       0.54135791       0.35413972 </v>
   <v>       0.44879923       0.66840653       0.55195203 </v>
   <v>       0.32424594       0.54759295       0.43632290 </v>
   <v>       0.20522707       0.54842834       0.55222044 </v>
   <v>       0.10971095       0.50003650       0.54506846 </v>
   <v>       0.20918051       0.67293364       0.43623425 </v>
   <v>       0.11377221       0.62635939       0.43339667 </v>
   <v>       0.32848691       0.79166934       0.55179441 </v>
   <v>       0.37559319       0.88722822       0.54521054 </v>
   <v>       0.49834193       0.88363847       0.43418529 </v>
   <v>       0.44964617       0.78817455       0.43672439 </v>
   <v>       0.42424683       0.71674601       0.49544105 </v>
   <v>       0.27817525       0.57282944       0.49542745 </v>
   <v>       0.28036062       0.71890744       0.49535397 </v>
   <v>       0.50935722       0.39958121       0.40630511 </v>
   <v>       0.55644827       0.34969668       0.40993410 </v>
   <v>       0.59480566       0.48766055       0.57829793 </v>
   <v>       0.64468957       0.44050545       0.57948269 </v>
   <v>       0.77907252       0.44096730       0.40970210 </v>
   <v>       0.87604053       0.48785035       0.40592862 </v>
   <v>       0.78148283       0.35239116       0.57897127 </v>
   <v>       0.87852534       0.40199183       0.57754268 </v>
   <v>       0.64757524       0.21790099       0.41076653 </v>
   <v>       0.59752678       0.12092104       0.40757474 </v>
   <v>       0.50950621       0.11895218       0.57925808 </v>
   <v>       0.55685320       0.21600340       0.58003758 </v>
   <v>       0.56420640       0.28714737       0.49596106 </v>
   <v>       0.70867947       0.43309435       0.49504288 </v>
   <v>       0.71012510       0.28857838       0.49535629 </v>
   <v>       0.45559661       0.92032376       0.35480963 </v>
   <v>       0.49239557       0.98576988       0.32347748 </v>
   <v>       0.52462288       0.95307113       0.35287330 </v>
   <v>       0.07726611       0.54721917       0.35413983 </v>
   <v>       0.01198825       0.51883210       0.32239682 </v>
   <v>       0.04471533       0.58367675       0.35205308 </v>
   <v>       0.45370106       0.95815828       0.59110301 </v>
   <v>       0.03865783       0.50638110       0.58992815 </v>
   <v>       0.47264356       0.50323898       0.42878922 </v>
   <v>       0.46710399       0.52808275       0.48616592 </v>
   <v>       0.45274065       0.50599708       0.36063033 </v>
   <v>       0.49252098       0.52497542       0.54386592 </v>
   <v>       0.45896559       0.60466070       0.52153424 </v>
   <v>       0.43819127       0.55657751       0.48809519 </v>
   <v>       0.38878687       0.53655251       0.45855357 </v>
   <v>       0.35450736       0.64136833       0.49567669 </v>
   <v>       0.38181099       0.69601228       0.49578499 </v>
   <v>       0.35573197       0.72454963       0.49568476 </v>
   <v>       0.30110340       0.69720634       0.49573063 </v>
   <v>       0.27256584       0.64258612       0.49566566 </v>
   <v>       0.29988838       0.61527297       0.49576480 </v>
   <v>       0.38505650       0.78218152       0.49432774 </v>
   <v>       0.43342214       0.80960382       0.46168037 </v>
   <v>       0.46065117       0.86374262       0.45919597 </v>
   <v>       0.44054589       0.89305934       0.48875132 </v>
   <v>       0.39236984       0.86566416       0.52193705 </v>
   <v>       0.36536622       0.81152292       0.52482641 </v>
   <v>       0.38280418       0.61204211       0.49417637 </v>
   <v>       0.43181183       0.63163729       0.52469865 </v>
   <v>       0.36188455       0.56376798       0.46127798 </v>
   <v>       0.21495270       0.61437890       0.49424434 </v>
   <v>       0.18549152       0.56543790       0.52491929 </v>
   <v>       0.13137062       0.53835637       0.52175176 </v>
   <v>       0.10409825       0.55911534       0.48819633 </v>
   <v>       0.13353638       0.60851756       0.45862316 </v>
   <v>       0.18765582       0.63534040       0.46130631 </v>
   <v>       0.63315939       0.36330218       0.49562279 </v>
   <v>       0.60668982       0.30870243       0.49593138 </v>
   <v>       0.63396032       0.28136287       0.49587258 </v>
   <v>       0.68855041       0.30949903       0.49560188 </v>
   <v>       0.71588538       0.36411869       0.49536198 </v>
   <v>       0.68776473       0.39059504       0.49540663 </v>
   <v>       0.60548635       0.22370931       0.49541423 </v>
   <v>       0.56594487       0.19517602       0.54226179 </v>
   <v>       0.53933833       0.14098025       0.54196076 </v>
   <v>       0.55030011       0.11373759       0.49315536 </v>
   <v>       0.58941026       0.14208805       0.44580040 </v>
   <v>       0.61718121       0.19623631       0.44769300 </v>
   <v>       0.60397546       0.39176994       0.49484364 </v>
   <v>       0.56497638       0.38004289       0.44686488 </v>
   <v>       0.53849849       0.40770514       0.44473922 </v>
   <v>       0.54896924       0.44670496       0.49214358 </v>
   <v>       0.58714160       0.45782711       0.54105614 </v>
   <v>       0.61483524       0.43133863       0.54159358 </v>
   <v>       0.77352855       0.39325337       0.49444245 </v>
   <v>       0.80085635       0.43230620       0.44652592 </v>
   <v>       0.85499518       0.45863805       0.44429623 </v>
   <v>       0.88346195       0.44790383       0.49150070 </v>
   <v>       0.85635926       0.40974860       0.54041067 </v>
   <v>       0.80219159       0.38223932       0.54107480 </v>
   <v>       0.49349176       0.98092813       0.42955454 </v>
   <v>       0.46890168       0.95048321       0.48696007 </v>
   <v>       0.52091835       0.05617396       0.49127893 </v>
   <v>       0.49086301       0.95833451       0.36140050 </v>
   <v>       0.01642374       0.52439604       0.42850849 </v>
   <v>       0.04670153       0.52998759       0.48602209 </v>
   <v>       0.94100547       0.47610536       0.48967674 </v>
   <v>       0.03929189       0.54458300       0.36051504 </v>
   <v>       0.52057157       0.47586125       0.49031585 </v>
   <v>       0.47201124       0.97893714       0.54475089 </v>
   <v>       0.01806693       0.50417819       0.54349901 </v>
  </varray>
 </structure>
</modeling>
