<?xml version="1.0" encoding="ISO-8859-1"?>
<modeling>
 <generator>
  <i name="program" type="string">vasp </i>
  <i name="version" type="string">5.4.4.18Apr17-6-g9f103f2a35  </i>
  <i name="subversion" type="string">(build Jun 07 2020 16:50:00) complex            parallel </i>
  <i name="platform" type="string">LinuxIFC </i>
  <i name="date" type="string">2023 02 27 </i>
  <i name="time" type="string">12:05:53 </i>
 </generator>
 <incar>
  <i type="string" name="SYSTEM">Simulation for cell shape cell volume r</i>
  <i type="int" name="ISTART">     1</i>
  <i type="string" name="PREC">high</i>
  <i type="string" name="ALGO">48</i>
  <i type="int" name="ICHARG">    11</i>
  <i type="int" name="NELM">   200</i>
  <i type="int" name="IBRION">    -1</i>
  <i name="EDIFF">      0.00001000</i>
  <i name="EDIFFG">     -0.01000000</i>
  <i type="int" name="NSW">     0</i>
  <i type="int" name="ISIF">     2</i>
  <i name="ENCUT">    500.00000000</i>
  <i name="POTIM">      0.30000000</i>
  <i type="string" name="LREAL">A</i>
  <i type="int" name="ISMEAR">     0</i>
  <i name="SIGMA">      0.01000000</i>
  <i type="int" name="NWRITE">     0</i>
  <i type="logical" name="LWAVE"> F  </i>
  <i type="logical" name="LCHARG"> F  </i>
  <v type="int" name="KPOINT_BSE">    -1     0     0     0</v>
  <i type="int" name="NELM">   200</i>
  <i type="string" name="GGA">PE</i>
 </incar>
 <structure name="primitive_cell" >
  <crystal>
   <varray name="basis" >
    <v>      23.17551578       0.00166606       0.00000000 </v>
    <v>     -11.58626610      20.06320493       0.00000000 </v>
    <v>      -0.00000005      -0.00059521      20.00000000 </v>
   </varray>
   <i name="volume">   9299.88851836 </i>
   <varray name="rec_basis" >
    <v>       0.04314719       0.02491700       0.00000074 </v>
    <v>      -0.00000358       0.04984042       0.00000148 </v>
    <v>       0.00000000       0.00000000       0.05000000 </v>
   </varray>
  </crystal>
  <varray name="positions" >
   <v>       0.18971237      -0.24099428      -0.33987125 </v>
   <v>       0.17296695      -0.26730782      -0.38289315 </v>
   <v>       0.13675817      -0.31561917      -0.37766401 </v>
   <v>       0.21688065      -0.25116703      -0.43505897 </v>
   <v>       0.29537100      -0.15891746      -0.39232046 </v>
   <v>       0.27864778      -0.19175919      -0.43591826 </v>
   <v>       0.20438241      -0.29490860      -0.48997904 </v>
   <v>       0.07832359      -0.31444623      -0.48425104 </v>
   <v>       0.15875043      -0.36833721      -0.48687004 </v>
   <v>       0.32109871      -0.17955683      -0.49008581 </v>
   <v>       0.05127318      -0.36873926      -0.48106499 </v>
   <v>       0.08857446      -0.40276207      -0.48060569 </v>
   <v>       0.24365095      -0.27489535       0.45540007 </v>
   <v>       0.30095178      -0.21790029       0.45401305 </v>
   <v>       0.19170758      -0.40483603      -0.49171779 </v>
   <v>       0.33939140      -0.05443744      -0.48342790 </v>
   <v>       0.39440159      -0.13373029      -0.48710064 </v>
   <v>       0.24544249      -0.37782478      -0.49948173 </v>
   <v>      -0.01680496      -0.40301144      -0.48081086 </v>
   <v>       0.05332363      -0.47444094      -0.47864330 </v>
   <v>      -0.04427687      -0.37619299      -0.48366116 </v>
   <v>       0.39367050      -0.02693079      -0.48047631 </v>
   <v>       0.42819713      -0.06368100      -0.48037525 </v>
   <v>       0.40440612      -0.22009029       0.49988384 </v>
   <v>       0.43111966      -0.16635279      -0.49219943 </v>
   <v>       0.15910259      -0.47418218      -0.48649895 </v>
   <v>       0.08901990       0.48960918      -0.48015210 </v>
   <v>      -0.05356559      -0.47428873      -0.48078575 </v>
   <v>      -0.01791731       0.48973567      -0.47883204 </v>
   <v>       0.42745370       0.04117795      -0.48069335 </v>
   <v>      -0.14825665      -0.43640242      -0.39266146 </v>
   <v>       0.20507347       0.49844268      -0.48936389 </v>
   <v>       0.49980252      -0.02795677      -0.47844831 </v>
   <v>       0.40019092       0.06819773      -0.48397578 </v>
   <v>      -0.49946522      -0.13335533      -0.48692378 </v>
   <v>       0.18467556       0.45191449      -0.39167521 </v>
   <v>       0.21747408       0.46821529      -0.43529080 </v>
   <v>      -0.12358803       0.48956390      -0.48753433 </v>
   <v>       0.05219667       0.41832122      -0.48022998 </v>
   <v>      -0.46377489      -0.06319012      -0.48037015 </v>
   <v>       0.24342904      -0.48315142       0.45475521 </v>
   <v>      -0.05322443       0.41805058      -0.48065632 </v>
   <v>       0.45994336       0.12740217      -0.37703824 </v>
   <v>      -0.18129371      -0.45254054      -0.43610165 </v>
   <v>       0.40338285      -0.37884954      -0.49980678 </v>
   <v>       0.49877320       0.07854510      -0.48015785 </v>
   <v>      -0.47152761      -0.17886205      -0.48980748 </v>
   <v>      -0.42595079      -0.11176142      -0.37697490 </v>
   <v>      -0.46481583       0.04328899      -0.47825138 </v>
   <v>      -0.16935654      -0.48286964      -0.49037941 </v>
   <v>      -0.01589732       0.38404416      -0.48079347 </v>
   <v>       0.07967214       0.39149791      -0.48288855 </v>
   <v>       0.27704447       0.46613642      -0.43457344 </v>
   <v>      -0.48994360      -0.21768453       0.45528064 </v>
   <v>      -0.44099520      -0.19168991      -0.43447294 </v>
   <v>       0.44818967       0.16383399      -0.38241675 </v>
   <v>       0.30042816      -0.48341490       0.45586854 </v>
   <v>      -0.41419667      -0.14821984      -0.38188644 </v>
   <v>      -0.22987213      -0.41259435      -0.33966719 </v>
   <v>      -0.15626726       0.42022797      -0.49251515 </v>
   <v>       0.43850528       0.18073455      -0.33957364 </v>
   <v>       0.32057170       0.49728589      -0.48964930 </v>
   <v>      -0.12340171       0.38367696      -0.48710192 </v>
   <v>      -0.40442004      -0.16480576      -0.33889406 </v>
   <v>       0.26735566       0.42884353      -0.33934928 </v>
   <v>       0.43043916      -0.40554613      -0.49210077 </v>
   <v>      -0.10153083       0.33157251      -0.37737709 </v>
   <v>      -0.24063997      -0.45009207      -0.43491568 </v>
   <v>      -0.39246140      -0.02586831      -0.48053235 </v>
   <v>      -0.49016833      -0.27497344       0.45380914 </v>
   <v>      -0.44317865      -0.25338670      -0.43547377 </v>
   <v>       0.29364942       0.43877048      -0.38241054 </v>
   <v>      -0.47269301      -0.29547525      -0.49005805 </v>
   <v>      -0.46544112       0.14875232      -0.48633503 </v>
   <v>      -0.25644888      -0.42230877      -0.38251170 </v>
   <v>      -0.04292568       0.32975220      -0.48404205 </v>
   <v>      -0.20790273       0.49895251       0.45387148 </v>
   <v>      -0.39319700       0.07897451      -0.47986075 </v>
   <v>       0.39396270      -0.47500072      -0.48688125 </v>
   <v>      -0.42752498      -0.27039249      -0.39175134 </v>
   <v>       0.47585745       0.20739702      -0.43484525 </v>
   <v>      -0.36522123      -0.05290955      -0.48379629 </v>
   <v>       0.34196928       0.45089315      -0.37746604 </v>
   <v>      -0.20998446       0.39323692       0.49959233 </v>
   <v>       0.49976664      -0.36884228      -0.48718331 </v>
   <v>      -0.49299725       0.19455957      -0.48960724 </v>
   <v>      -0.35866721       0.04222950      -0.47999315 </v>
   <v>      -0.13795538       0.28333335      -0.38229851 </v>
   <v>      -0.28455330      -0.48120311      -0.48976039 </v>
   <v>      -0.16925657       0.31028346      -0.48974032 </v>
   <v>      -0.26478226       0.49946752       0.45547839 </v>
   <v>      -0.30460895      -0.43402847      -0.37710714 </v>
   <v>      -0.39600412       0.18170159      -0.49124648 </v>
   <v>      -0.35934397       0.14904154      -0.48624120 </v>
   <v>      -0.15446354       0.25703957      -0.33924884 </v>
   <v>       0.47831929       0.26921022      -0.43607587 </v>
   <v>      -0.18175031       0.26680168      -0.43457832 </v>
   <v>       0.42837804       0.48921943      -0.48061007 </v>
   <v>      -0.47329669       0.23379669       0.45573415 </v>
   <v>       0.46217186       0.28615113      -0.39266991 </v>
   <v>      -0.30437290       0.06975317      -0.48269066 </v>
   <v>      -0.30417962      -0.37461751      -0.48374347 </v>
   <v>      -0.46405551      -0.40270523      -0.48053289 </v>
   <v>      -0.20881938       0.29018747       0.45584316 </v>
   <v>       0.34014917       0.39056787      -0.48414352 </v>
   <v>      -0.36922867       0.23546289      -0.49893642 </v>
   <v>      -0.49996394      -0.47434339      -0.47873470 </v>
   <v>      -0.35795432       0.49105102      -0.48674327 </v>
   <v>       0.39442697       0.41787430      -0.48098290 </v>
   <v>      -0.49119544       0.31151829      -0.49028959 </v>
   <v>      -0.25999950       0.17450424      -0.39162513 </v>
   <v>      -0.47275642       0.29122368       0.45406767 </v>
   <v>      -0.36603269      -0.31383756      -0.48325347 </v>
   <v>      -0.28604994       0.19493125      -0.48930653 </v>
   <v>      -0.35846533      -0.40190782      -0.48064796 </v>
   <v>      -0.39279190      -0.36814279      -0.48045490 </v>
   <v>      -0.36736350       0.39492347       0.49993781 </v>
   <v>      -0.24343377       0.20727130      -0.43527533 </v>
   <v>       0.40198007       0.32980787      -0.48361393 </v>
   <v>      -0.39242530      -0.47324429      -0.48040422 </v>
   <v>      -0.39439818       0.42161625      -0.49218449 </v>
   <v>      -0.26618212       0.23327792       0.45479361 </v>
   <v>      -0.46408992       0.49028906      -0.47870765 </v>
   <v>       0.42875476       0.38410711      -0.48073993 </v>
   <v>      -0.46373090       0.38485452      -0.48735266 </v>
   <v>      -0.49997605       0.41865460      -0.48065439 </v>
  </varray>
 </structure>
 <varray name="primitive_index" >
  <v type="int" >        1 </v>
  <v type="int" >       37 </v>
  <v type="int" >        2 </v>
  <v type="int" >       55 </v>
  <v type="int" >       11 </v>
  <v type="int" >       66 </v>
  <v type="int" >       56 </v>
  <v type="int" >        6 </v>
  <v type="int" >       62 </v>
  <v type="int" >       74 </v>
  <v type="int" >       65 </v>
  <v type="int" >       63 </v>
  <v type="int" >       39 </v>
  <v type="int" >       41 </v>
  <v type="int" >       73 </v>
  <v type="int" >        8 </v>
  <v type="int" >       67 </v>
  <v type="int" >       13 </v>
  <v type="int" >      122 </v>
  <v type="int" >       59 </v>
  <v type="int" >       33 </v>
  <v type="int" >       68 </v>
  <v type="int" >       76 </v>
  <v type="int" >       14 </v>
  <v type="int" >       95 </v>
  <v type="int" >       61 </v>
  <v type="int" >       60 </v>
  <v type="int" >      120 </v>
  <v type="int" >      116 </v>
  <v type="int" >       82 </v>
  <v type="int" >       31 </v>
  <v type="int" >       72 </v>
  <v type="int" >       75 </v>
  <v type="int" >        7 </v>
  <v type="int" >       77 </v>
  <v type="int" >        4 </v>
  <v type="int" >       57 </v>
  <v type="int" >      119 </v>
  <v type="int" >       64 </v>
  <v type="int" >       78 </v>
  <v type="int" >       40 </v>
  <v type="int" >      117 </v>
  <v type="int" >       17 </v>
  <v type="int" >      113 </v>
  <v type="int" >       15 </v>
  <v type="int" >       80 </v>
  <v type="int" >       91 </v>
  <v type="int" >       24 </v>
  <v type="int" >       79 </v>
  <v type="int" >      125 </v>
  <v type="int" >      121 </v>
  <v type="int" >        5 </v>
  <v type="int" >       58 </v>
  <v type="int" >       44 </v>
  <v type="int" >      109 </v>
  <v type="int" >       43 </v>
  <v type="int" >       42 </v>
  <v type="int" >       48 </v>
  <v type="int" >       29 </v>
  <v type="int" >      126 </v>
  <v type="int" >       16 </v>
  <v type="int" >       71 </v>
  <v type="int" >      118 </v>
  <v type="int" >       23 </v>
  <v type="int" >        3 </v>
  <v type="int" >       96 </v>
  <v type="int" >       27 </v>
  <v type="int" >      114 </v>
  <v type="int" >       99 </v>
  <v type="int" >       45 </v>
  <v type="int" >      108 </v>
  <v type="int" >       38 </v>
  <v type="int" >       97 </v>
  <v type="int" >       81 </v>
  <v type="int" >       50 </v>
  <v type="int" >       32 </v>
  <v type="int" >       54 </v>
  <v type="int" >      102 </v>
  <v type="int" >       69 </v>
  <v type="int" >       25 </v>
  <v type="int" >       93 </v>
  <v type="int" >       20 </v>
  <v type="int" >       12 </v>
  <v type="int" >       36 </v>
  <v type="int" >       85 </v>
  <v type="int" >       94 </v>
  <v type="int" >      103 </v>
  <v type="int" >       49 </v>
  <v type="int" >      115 </v>
  <v type="int" >      112 </v>
  <v type="int" >       53 </v>
  <v type="int" >       30 </v>
  <v type="int" >      100 </v>
  <v type="int" >      101 </v>
  <v type="int" >       26 </v>
  <v type="int" >       92 </v>
  <v type="int" >      111 </v>
  <v type="int" >       86 </v>
  <v type="int" >       46 </v>
  <v type="int" >       18 </v>
  <v type="int" >       19 </v>
  <v type="int" >       21 </v>
  <v type="int" >       84 </v>
  <v type="int" >       51 </v>
  <v type="int" >       10 </v>
  <v type="int" >       34 </v>
  <v type="int" >       83 </v>
  <v type="int" >      106 </v>
  <v type="int" >       70 </v>
  <v type="int" >       98 </v>
  <v type="int" >       28 </v>
  <v type="int" >       47 </v>
  <v type="int" >       22 </v>
  <v type="int" >      124 </v>
  <v type="int" >      107 </v>
  <v type="int" >      104 </v>
  <v type="int" >       35 </v>
  <v type="int" >      110 </v>
  <v type="int" >        9 </v>
  <v type="int" >      105 </v>
  <v type="int" >      123 </v>
  <v type="int" >       52 </v>
  <v type="int" >       87 </v>
  <v type="int" >       90 </v>
  <v type="int" >       88 </v>
  <v type="int" >       89 </v>
 </varray>
 <kpoints>
  <generation param="listgenerated">
   <i name="divisions" type="int">      20 </i>
   <v>       0.00000000       0.00000000       0.00000000 </v>
   <v>       0.50000000       0.00000000       0.00000000 </v>
   <v>       0.33333333       0.33333333       0.00000000 </v>
   <v>       0.00000000       0.00000000       0.00000000 </v>
  </generation>
  <varray name="kpointlist" >
   <v>       0.00000000       0.00000000       0.00000000 </v>
   <v>       0.02631579       0.00000000       0.00000000 </v>
   <v>       0.05263158       0.00000000       0.00000000 </v>
   <v>       0.07894737       0.00000000       0.00000000 </v>
   <v>       0.10526316       0.00000000       0.00000000 </v>
   <v>       0.13157895       0.00000000       0.00000000 </v>
   <v>       0.15789474       0.00000000       0.00000000 </v>
   <v>       0.18421053       0.00000000       0.00000000 </v>
   <v>       0.21052632       0.00000000       0.00000000 </v>
   <v>       0.23684211       0.00000000       0.00000000 </v>
   <v>       0.26315789       0.00000000       0.00000000 </v>
   <v>       0.28947368       0.00000000       0.00000000 </v>
   <v>       0.31578947       0.00000000       0.00000000 </v>
   <v>       0.34210526       0.00000000       0.00000000 </v>
   <v>       0.36842105       0.00000000       0.00000000 </v>
   <v>       0.39473684       0.00000000       0.00000000 </v>
   <v>       0.42105263       0.00000000       0.00000000 </v>
   <v>       0.44736842       0.00000000       0.00000000 </v>
   <v>       0.47368421       0.00000000       0.00000000 </v>
   <v>       0.50000000       0.00000000       0.00000000 </v>
   <v>       0.50000000       0.00000000       0.00000000 </v>
   <v>       0.49122807       0.01754386       0.00000000 </v>
   <v>       0.48245614       0.03508772       0.00000000 </v>
   <v>       0.47368421       0.05263158       0.00000000 </v>
   <v>       0.46491228       0.07017544       0.00000000 </v>
   <v>       0.45614035       0.08771930       0.00000000 </v>
   <v>       0.44736842       0.10526316       0.00000000 </v>
   <v>       0.43859649       0.12280702       0.00000000 </v>
   <v>       0.42982456       0.14035088       0.00000000 </v>
   <v>       0.42105263       0.15789474       0.00000000 </v>
   <v>       0.41228070       0.17543860       0.00000000 </v>
   <v>       0.40350877       0.19298246       0.00000000 </v>
   <v>       0.39473684       0.21052632       0.00000000 </v>
   <v>       0.38596491       0.22807018       0.00000000 </v>
   <v>       0.37719298       0.24561404       0.00000000 </v>
   <v>       0.36842105       0.26315789       0.00000000 </v>
   <v>       0.35964912       0.28070175       0.00000000 </v>
   <v>       0.35087719       0.29824561       0.00000000 </v>
   <v>       0.34210526       0.31578947       0.00000000 </v>
   <v>       0.33333333       0.33333333       0.00000000 </v>
   <v>       0.33333333       0.33333333       0.00000000 </v>
   <v>       0.31578947       0.31578947       0.00000000 </v>
   <v>       0.29824561       0.29824561       0.00000000 </v>
   <v>       0.28070175       0.28070175       0.00000000 </v>
   <v>       0.26315789       0.26315789       0.00000000 </v>
   <v>       0.24561404       0.24561404       0.00000000 </v>
   <v>       0.22807018       0.22807018       0.00000000 </v>
   <v>       0.21052632       0.21052632       0.00000000 </v>
   <v>       0.19298246       0.19298246       0.00000000 </v>
   <v>       0.17543860       0.17543860       0.00000000 </v>
   <v>       0.15789474       0.15789474       0.00000000 </v>
   <v>       0.14035088       0.14035088       0.00000000 </v>
   <v>       0.12280702       0.12280702       0.00000000 </v>
   <v>       0.10526316       0.10526316       0.00000000 </v>
   <v>       0.08771930       0.08771930       0.00000000 </v>
   <v>       0.07017544       0.07017544       0.00000000 </v>
   <v>       0.05263158       0.05263158       0.00000000 </v>
   <v>       0.03508772       0.03508772       0.00000000 </v>
   <v>       0.01754386       0.01754386       0.00000000 </v>
   <v>       0.00000000       0.00000000       0.00000000 </v>
  </varray>
  <varray name="weights" >
   <v>       0.01666667 </v>
   <v>       0.01666667 </v>
   <v>       0.01666667 </v>
   <v>       0.01666667 </v>
   <v>       0.01666667 </v>
   <v>       0.01666667 </v>
   <v>       0.01666667 </v>
   <v>       0.01666667 </v>
   <v>       0.01666667 </v>
   <v>       0.01666667 </v>
   <v>       0.01666667 </v>
   <v>       0.01666667 </v>
   <v>       0.01666667 </v>
   <v>       0.01666667 </v>
   <v>       0.01666667 </v>
   <v>       0.01666667 </v>
   <v>       0.01666667 </v>
   <v>       0.01666667 </v>
   <v>       0.01666667 </v>
   <v>       0.01666667 </v>
   <v>       0.01666667 </v>
   <v>       0.01666667 </v>
   <v>       0.01666667 </v>
   <v>       0.01666667 </v>
   <v>       0.01666667 </v>
   <v>       0.01666667 </v>
   <v>       0.01666667 </v>
   <v>       0.01666667 </v>
   <v>       0.01666667 </v>
   <v>       0.01666667 </v>
   <v>       0.01666667 </v>
   <v>       0.01666667 </v>
   <v>       0.01666667 </v>
   <v>       0.01666667 </v>
   <v>       0.01666667 </v>
   <v>       0.01666667 </v>
   <v>       0.01666667 </v>
   <v>       0.01666667 </v>
   <v>       0.01666667 </v>
   <v>       0.01666667 </v>
   <v>       0.01666667 </v>
   <v>       0.01666667 </v>
   <v>       0.01666667 </v>
   <v>       0.01666667 </v>
   <v>       0.01666667 </v>
   <v>       0.01666667 </v>
   <v>       0.01666667 </v>
   <v>       0.01666667 </v>
   <v>       0.01666667 </v>
   <v>       0.01666667 </v>
   <v>       0.01666667 </v>
   <v>       0.01666667 </v>
   <v>       0.01666667 </v>
   <v>       0.01666667 </v>
   <v>       0.01666667 </v>
   <v>       0.01666667 </v>
   <v>       0.01666667 </v>
   <v>       0.01666667 </v>
   <v>       0.01666667 </v>
   <v>       0.01666667 </v>
  </varray>
 </kpoints>
 <parameters>
  <separator name="general" >
   <i type="string" name="SYSTEM">Simulation for cell shape cell volume r</i>
   <i type="logical" name="LCOMPAT"> F  </i>
  </separator>
  <separator name="electronic" >
   <i type="string" name="PREC">high</i>
   <i name="ENMAX">    500.00000000</i>
   <i name="ENAUG">    644.87300000</i>
   <i name="EDIFF">      0.00001000</i>
   <i type="int" name="IALGO">    38</i>
   <i type="int" name="IWAVPR">    10</i>
   <i type="int" name="NBANDS">   272</i>
   <i name="NELECT">    414.00000000</i>
   <i type="int" name="TURBO">     0</i>
   <i type="int" name="IRESTART">     0</i>
   <i type="int" name="NREBOOT">     0</i>
   <i type="int" name="NMIN">     0</i>
   <i name="EREF">      0.00000000</i>
   <separator name="electronic smearing" >
    <i type="int" name="ISMEAR">     0</i>
    <i name="SIGMA">      0.01000000</i>
    <i name="KSPACING">      0.50000000</i>
    <i type="logical" name="KGAMMA"> T  </i>
   </separator>
   <separator name="electronic projectors" >
    <i type="logical" name="LREAL"> T  </i>
    <v name="ROPT">     -0.00040000     -0.00040000     -0.00040000</v>
    <i type="int" name="LMAXPAW">  -100</i>
    <i type="int" name="LMAXMIX">     2</i>
    <i type="logical" name="NLSPLINE"> F  </i>
   </separator>
   <separator name="electronic startup" >
    <i type="int" name="ISTART">     1</i>
    <i type="int" name="ICHARG">    11</i>
    <i type="int" name="INIWAV">     1</i>
   </separator>
   <separator name="electronic spin" >
    <i type="int" name="ISPIN">     1</i>
    <i type="logical" name="LNONCOLLINEAR"> F  </i>
    <v name="MAGMOM">      1.00000000      1.00000000      1.00000000      1.00000000      1.00000000      1.00000000      1.00000000      1.00000000      1.00000000      1.00000000      1.00000000      1.00000000      1.00000000      1.00000000      1.00000000      1.00000000      1.00000000      1.00000000      1.00000000      1.00000000
      1.00000000      1.00000000      1.00000000      1.00000000      1.00000000      1.00000000      1.00000000      1.00000000      1.00000000      1.00000000      1.00000000      1.00000000      1.00000000      1.00000000      1.00000000      1.00000000      1.00000000      1.00000000      1.00000000      1.00000000
      1.00000000      1.00000000      1.00000000      1.00000000      1.00000000      1.00000000      1.00000000      1.00000000      1.00000000      1.00000000      1.00000000      1.00000000      1.00000000      1.00000000      1.00000000      1.00000000      1.00000000      1.00000000      1.00000000      1.00000000
      1.00000000      1.00000000      1.00000000      1.00000000      1.00000000      1.00000000      1.00000000      1.00000000      1.00000000      1.00000000      1.00000000      1.00000000      1.00000000      1.00000000      1.00000000      1.00000000      1.00000000      1.00000000      1.00000000      1.00000000
      1.00000000      1.00000000      1.00000000      1.00000000      1.00000000      1.00000000      1.00000000      1.00000000      1.00000000      1.00000000      1.00000000      1.00000000      1.00000000      1.00000000      1.00000000      1.00000000      1.00000000      1.00000000      1.00000000      1.00000000
      1.00000000      1.00000000      1.00000000      1.00000000      1.00000000      1.00000000      1.00000000      1.00000000      1.00000000      1.00000000      1.00000000      1.00000000      1.00000000      1.00000000      1.00000000      1.00000000      1.00000000      1.00000000      1.00000000      1.00000000
      1.00000000      1.00000000      1.00000000      1.00000000      1.00000000      1.00000000</v>
    <i name="NUPDOWN">     -1.00000000</i>
    <i type="logical" name="LSORBIT"> F  </i>
    <v name="SAXIS">      0.00000000      0.00000000      1.00000000</v>
    <i type="logical" name="LSPIRAL"> F  </i>
    <v name="QSPIRAL">      0.00000000      0.00000000      0.00000000</v>
    <i type="logical" name="LZEROZ"> F  </i>
   </separator>
   <separator name="electronic exchange-correlation" >
    <i type="logical" name="LASPH"> F  </i>
    <i type="logical" name="LMETAGGA"> F  </i>
   </separator>
   <separator name="electronic convergence" >
    <i type="int" name="NELM">   200</i>
    <i type="int" name="NELMDL">     0</i>
    <i type="int" name="NELMIN">     2</i>
    <i name="ENINI">    500.00000000</i>
    <separator name="electronic convergence detail" >
     <i type="logical" name="LDIAG"> T  </i>
     <i type="logical" name="LSUBROT"> F  </i>
     <i name="WEIMIN">      0.00000000</i>
     <i name="EBREAK">      0.00000001</i>
     <i name="DEPER">      0.30000000</i>
     <i type="int" name="NRMM">     4</i>
     <i name="TIME">      0.40000000</i>
    </separator>
   </separator>
   <separator name="electronic mixer" >
    <i name="AMIX">      0.40000000</i>
    <i name="BMIX">      1.00000000</i>
    <i name="AMIN">      0.10000000</i>
    <i name="AMIX_MAG">      1.60000000</i>
    <i name="BMIX_MAG">      1.00000000</i>
    <separator name="electronic mixer details" >
     <i type="int" name="IMIX">     4</i>
     <i type="logical" name="MIXFIRST"> F  </i>
     <i type="int" name="MAXMIX">   -45</i>
     <i name="WC">    100.00000000</i>
     <i type="int" name="INIMIX">     1</i>
     <i type="int" name="MIXPRE">     1</i>
     <i type="int" name="MREMOVE">     5</i>
    </separator>
   </separator>
   <separator name="electronic dipolcorrection" >
    <i type="logical" name="LDIPOL"> F  </i>
    <i type="logical" name="LMONO"> F  </i>
    <i type="int" name="IDIPOL">     0</i>
    <i name="EPSILON">      1.00000000</i>
    <v name="DIPOL">   -100.00000000   -100.00000000   -100.00000000</v>
    <i name="EFIELD">      0.00000000</i>
   </separator>
  </separator>
  <separator name="grids" >
   <i type="int" name="NGX">   180</i>
   <i type="int" name="NGY">   180</i>
   <i type="int" name="NGZ">   150</i>
   <i type="int" name="NGXF">   256</i>
   <i type="int" name="NGYF">   256</i>
   <i type="int" name="NGZF">   224</i>
   <i type="logical" name="ADDGRID"> F  </i>
  </separator>
  <separator name="ionic" >
   <i type="int" name="NSW">     0</i>
   <i type="int" name="IBRION">    -1</i>
   <i type="int" name="MDALGO">     0</i>
   <i type="int" name="ISIF">     2</i>
   <i name="PSTRESS">      0.00000000</i>
   <i name="EDIFFG">     -0.01000000</i>
   <i type="int" name="NFREE">     0</i>
   <i name="POTIM">      0.30000000</i>
   <i name="SMASS">     -3.00000000</i>
   <i name="SCALEE">      1.00000000</i>
  </separator>
  <separator name="ionic md" >
   <i name="TEBEG">      0.00010000</i>
   <i name="TEEND">      0.00010000</i>
   <i type="int" name="NBLOCK">     1</i>
   <i type="int" name="KBLOCK">     1</i>
   <i type="int" name="NPACO">   256</i>
   <i name="APACO">     16.00000000</i>
  </separator>
  <separator name="symmetry" >
   <i type="int" name="ISYM">     2</i>
   <i name="SYMPREC">      0.00001000</i>
  </separator>
  <separator name="dos" >
   <i type="int" name="LORBIT">     0</i>
   <v name="RWIGS">     -1.00000000     -1.00000000     -1.00000000</v>
   <i type="int" name="NEDOS">   301</i>
   <i name="EMIN">     10.00000000</i>
   <i name="EMAX">    -10.00000000</i>
   <i name="EFERMI">      0.00000000</i>
  </separator>
  <separator name="writing" >
   <i type="int" name="NWRITE">     0</i>
   <i type="logical" name="LWAVE"> F  </i>
   <i type="logical" name="LDOWNSAMPLE"> F  </i>
   <i type="logical" name="LCHARG"> F  </i>
   <i type="logical" name="LPARD"> F  </i>
   <i type="logical" name="LVTOT"> F  </i>
   <i type="logical" name="LVHAR"> F  </i>
   <i type="logical" name="LELF"> F  </i>
   <i type="logical" name="LOPTICS"> F  </i>
   <v name="STM">      0.00000000      0.00000000      0.00000000      0.00000000      0.00000000      0.00000000      0.00000000</v>
  </separator>
  <separator name="performance" >
   <i type="int" name="NPAR">    16</i>
   <i type="int" name="NSIM">     4</i>
   <i type="int" name="NBLK">    -1</i>
   <i type="logical" name="LPLANE"> T  </i>
   <i type="logical" name="LSCALAPACK"> T  </i>
   <i type="logical" name="LSCAAWARE"> F  </i>
   <i type="logical" name="LSCALU"> F  </i>
   <i type="logical" name="LASYNC"> F  </i>
   <i type="logical" name="LORBITALREAL"> F  </i>
  </separator>
  <separator name="miscellaneous" >
   <i type="int" name="IDIOT">     3</i>
   <i type="int" name="ISPECIAL">     0</i>
   <i type="logical" name="LMUSIC"> F  </i>
   <v name="POMASS">      1.00000000     14.00100000     12.01100000</v>
   <v name="DARWINR">      0.00000000      0.00000000      0.00000000</v>
   <v name="DARWINV">      1.00000000      1.00000000      1.00000000</v>
   <i type="logical" name="LCORR"> T  </i>
  </separator>
  <i type="logical" name="GGA_COMPAT"> T  </i>
  <i type="logical" name="LBERRY"> F  </i>
  <i type="int" name="ICORELEVEL">     0</i>
  <i type="logical" name="LDAU"> F  </i>
  <i type="int" name="I_CONSTRAINED_M">     0</i>
  <separator name="electronic exchange-correlation" >
   <i type="string" name="GGA">PE</i>
   <i type="int" name="VOSKOWN">     0</i>
   <i type="logical" name="LHFCALC"> F  </i>
   <i type="string" name="PRECFOCK"></i>
   <i type="logical" name="LSYMGRAD"> F  </i>
   <i type="logical" name="LHFONE"> F  </i>
   <i type="logical" name="LRHFCALC"> F  </i>
   <i type="logical" name="LTHOMAS"> F  </i>
   <i type="logical" name="LMODELHF"> F  </i>
   <i name="ENCUT4O">     -1.00000000</i>
   <i type="int" name="EXXOEP">     0</i>
   <i type="int" name="FOURORBIT">     0</i>
   <i name="AEXX">      0.00000000</i>
   <i name="HFALPHA">      0.00000000</i>
   <i name="MCALPHA">      0.00000000</i>
   <i name="ALDAX">      1.00000000</i>
   <i name="AGGAX">      1.00000000</i>
   <i name="ALDAC">      1.00000000</i>
   <i name="AGGAC">      1.00000000</i>
   <i type="int" name="NKREDX">     1</i>
   <i type="int" name="NKREDY">     1</i>
   <i type="int" name="NKREDZ">     1</i>
   <i type="logical" name="SHIFTRED"> F  </i>
   <i type="logical" name="ODDONLY"> F  </i>
   <i type="logical" name="EVENONLY"> F  </i>
   <i type="int" name="LMAXFOCK">     0</i>
   <i type="int" name="NMAXFOCKAE">     0</i>
   <i type="logical" name="LFOCKAEDFT"> F  </i>
   <i name="HFSCREEN">      0.00000000</i>
   <i name="HFSCREENC">      0.00000000</i>
   <i type="int" name="NBANDSGWLOW">     0</i>
  </separator>
  <separator name="vdW DFT" >
   <i type="logical" name="LUSE_VDW"> F  </i>
   <i name="Zab_VDW">     -0.84910000</i>
   <i name="PARAM1">      0.12340000</i>
   <i name="PARAM2">      1.00000000</i>
   <i name="PARAM3">      0.00000000</i>
  </separator>
  <separator name="model GW" >
   <i type="int" name="MODEL_GW">     0</i>
   <i name="MODEL_EPS0">     44.28518342</i>
   <i name="MODEL_ALPHA">      1.00000000</i>
  </separator>
  <separator name="linear response parameters" >
   <i type="logical" name="LEPSILON"> F  </i>
   <i type="logical" name="LRPA"> F  </i>
   <i type="logical" name="LNABLA"> F  </i>
   <i type="logical" name="LVEL"> F  </i>
   <i type="int" name="KINTER">     0</i>
   <i name="CSHIFT">      0.10000000</i>
   <i name="OMEGAMAX">     -1.00000000</i>
   <i name="DEG_THRESHOLD">      0.00200000</i>
   <i name="RTIME">     -0.10000000</i>
   <i name="WPLASMAI">      0.00000000</i>
   <v name="DFIELD">      0.00000000      0.00000000      0.00000000</v>
   <v name="WPLASMA">      0.00000000      0.00000000      0.00000000      0.00000000      0.00000000      0.00000000      0.00000000      0.00000000      0.00000000</v>
  </separator>
  <separator name="orbital magnetization" >
   <i type="logical" name="NUCIND"> F  </i>
   <v name="MAGPOS">      0.00000000      0.00000000      0.00000000</v>
   <i type="logical" name="LNICSALL"> T  </i>
   <i type="logical" name="ORBITALMAG"> F  </i>
   <i type="logical" name="LMAGBLOCH"> F  </i>
   <i type="logical" name="LCHIMAG"> F  </i>
   <i type="logical" name="LGAUGE"> T  </i>
   <i type="int" name="MAGATOM">     0</i>
   <v name="MAGDIPOL">      0.00000000      0.00000000      0.00000000</v>
   <v name="AVECCONST">      0.00000000      0.00000000      0.00000000</v>
  </separator>
  <separator name="response functions" >
   <i type="logical" name="LADDER"> F  </i>
   <i type="logical" name="LRPAFORCE"> F  </i>
   <i type="logical" name="LFXC"> F  </i>
   <i type="logical" name="LHARTREE"> T  </i>
   <i type="int" name="IBSE">     0</i>
   <v type="int" name="KPOINT">    -1     0     0     0</v>
   <i type="logical" name="LTCTE"> F  </i>
   <i type="logical" name="LTETE"> F  </i>
   <i type="logical" name="LTRIPLET"> F  </i>
   <i type="logical" name="LFXCEPS"> F  </i>
   <i type="logical" name="LFXHEG"> F  </i>
   <i type="int" name="NATURALO">     2</i>
   <i type="logical" name="L2ORDER"> F  </i>
   <i type="logical" name="LMP2LT"> F  </i>
   <i type="logical" name="LUSEW"> F  </i>
   <i name="ENCUTGW">     -2.00000000</i>
   <i name="ENCUTGWSOFT">     -2.00000000</i>
   <i name="ENCUTLF">     -1.00000000</i>
   <i type="int" name="LMAXMP2">    -1</i>
   <i name="SCISSOR">      0.00000000</i>
   <i type="int" name="NOMEGA">     0</i>
   <i type="int" name="NOMEGAR">     0</i>
   <i type="int" name="NBANDSGW">    -1</i>
   <i type="int" name="NBANDSO">    -1</i>
   <i type="int" name="NBANDSV">    -1</i>
   <i type="int" name="NELM">   200</i>
   <i type="int" name="NELMHF">     1</i>
   <i type="int" name="DIM">     3</i>
   <i type="int" name="ANTIRES">     0</i>
   <i name="OMEGAMAX">    -30.00000000</i>
   <i name="OMEGAMIN">    -30.00000000</i>
   <i name="OMEGATL">   -200.00000000</i>
   <i type="int" name="OMEGAGRID">   140</i>
   <i name="CSHIFT">     -0.10000000</i>
   <i type="logical" name="SELFENERGY"> F  </i>
   <i type="logical" name="LSPECTRAL"> F  </i>
   <i type="logical" name="LSPECTRALGW"> F  </i>
   <i type="logical" name="LSINGLES"> F  </i>
   <i type="logical" name="LFERMIGW"> F  </i>
   <i type="logical" name="ODDONLYGW"> F  </i>
   <i type="logical" name="EVENONLYGW"> F  </i>
   <i type="int" name="NKREDLFX">     1</i>
   <i type="int" name="NKREDLFY">     1</i>
   <i type="int" name="NKREDLFZ">     1</i>
   <i type="int" name="MAXMEM">  2800</i>
   <i type="int" name="TELESCOPE">     0</i>
   <i type="int" name="TAUPAR">     1</i>
   <i type="int" name="OMEGAPAR">    -1</i>
   <i name="LAMBDA">      1.00000000</i>
  </separator>
  <separator name="External order field" >
   <i name="OFIELD_KAPPA">      0.00000000</i>
   <v name="OFIELD_K">      0.00000000      0.00000000      0.00000000</v>
   <i name="OFIELD_Q6_NEAR">      0.00000000</i>
   <i name="OFIELD_Q6_FAR">      0.00000000</i>
   <i name="OFIELD_A">      0.00000000</i>
  </separator>
  <separator name="solvation model" >
   <i type="logical" name="LSOL"> F  </i>
  </separator>
 </parameters>
 <atominfo>
  <atoms>     126 </atoms>
  <types>       3 </types>
  <array name="atoms" >
   <dimension dim="1">ion</dimension>
   <field type="string">element</field>
   <field type="int">atomtype</field>
   <set>
    <rc><c>H </c><c>   1</c></rc>
    <rc><c>H </c><c>   1</c></rc>
    <rc><c>H </c><c>   1</c></rc>
    <rc><c>H </c><c>   1</c></rc>
    <rc><c>H </c><c>   1</c></rc>
    <rc><c>H </c><c>   1</c></rc>
    <rc><c>H </c><c>   1</c></rc>
    <rc><c>H </c><c>   1</c></rc>
    <rc><c>H </c><c>   1</c></rc>
    <rc><c>H </c><c>   1</c></rc>
    <rc><c>H </c><c>   1</c></rc>
    <rc><c>H </c><c>   1</c></rc>
    <rc><c>H </c><c>   1</c></rc>
    <rc><c>H </c><c>   1</c></rc>
    <rc><c>H </c><c>   1</c></rc>
    <rc><c>H </c><c>   1</c></rc>
    <rc><c>H </c><c>   1</c></rc>
    <rc><c>H </c><c>   1</c></rc>
    <rc><c>H </c><c>   1</c></rc>
    <rc><c>H </c><c>   1</c></rc>
    <rc><c>H </c><c>   1</c></rc>
    <rc><c>H </c><c>   1</c></rc>
    <rc><c>H </c><c>   1</c></rc>
    <rc><c>H </c><c>   1</c></rc>
    <rc><c>H </c><c>   1</c></rc>
    <rc><c>H </c><c>   1</c></rc>
    <rc><c>H </c><c>   1</c></rc>
    <rc><c>H </c><c>   1</c></rc>
    <rc><c>H </c><c>   1</c></rc>
    <rc><c>H </c><c>   1</c></rc>
    <rc><c>H </c><c>   1</c></rc>
    <rc><c>H </c><c>   1</c></rc>
    <rc><c>H </c><c>   1</c></rc>
    <rc><c>H </c><c>   1</c></rc>
    <rc><c>H </c><c>   1</c></rc>
    <rc><c>H </c><c>   1</c></rc>
    <rc><c>N </c><c>   2</c></rc>
    <rc><c>N </c><c>   2</c></rc>
    <rc><c>N </c><c>   2</c></rc>
    <rc><c>N </c><c>   2</c></rc>
    <rc><c>N </c><c>   2</c></rc>
    <rc><c>N </c><c>   2</c></rc>
    <rc><c>N </c><c>   2</c></rc>
    <rc><c>N </c><c>   2</c></rc>
    <rc><c>N </c><c>   2</c></rc>
    <rc><c>N </c><c>   2</c></rc>
    <rc><c>N </c><c>   2</c></rc>
    <rc><c>N </c><c>   2</c></rc>
    <rc><c>N </c><c>   2</c></rc>
    <rc><c>N </c><c>   2</c></rc>
    <rc><c>N </c><c>   2</c></rc>
    <rc><c>N </c><c>   2</c></rc>
    <rc><c>N </c><c>   2</c></rc>
    <rc><c>N </c><c>   2</c></rc>
    <rc><c>C </c><c>   3</c></rc>
    <rc><c>C </c><c>   3</c></rc>
    <rc><c>C </c><c>   3</c></rc>
    <rc><c>C </c><c>   3</c></rc>
    <rc><c>C </c><c>   3</c></rc>
    <rc><c>C </c><c>   3</c></rc>
    <rc><c>C </c><c>   3</c></rc>
    <rc><c>C </c><c>   3</c></rc>
    <rc><c>C </c><c>   3</c></rc>
    <rc><c>C </c><c>   3</c></rc>
    <rc><c>C </c><c>   3</c></rc>
    <rc><c>C </c><c>   3</c></rc>
    <rc><c>C </c><c>   3</c></rc>
    <rc><c>C </c><c>   3</c></rc>
    <rc><c>C </c><c>   3</c></rc>
    <rc><c>C </c><c>   3</c></rc>
    <rc><c>C </c><c>   3</c></rc>
    <rc><c>C </c><c>   3</c></rc>
    <rc><c>C </c><c>   3</c></rc>
    <rc><c>C </c><c>   3</c></rc>
    <rc><c>C </c><c>   3</c></rc>
    <rc><c>C </c><c>   3</c></rc>
    <rc><c>C </c><c>   3</c></rc>
    <rc><c>C </c><c>   3</c></rc>
    <rc><c>C </c><c>   3</c></rc>
    <rc><c>C </c><c>   3</c></rc>
    <rc><c>C </c><c>   3</c></rc>
    <rc><c>C </c><c>   3</c></rc>
    <rc><c>C </c><c>   3</c></rc>
    <rc><c>C </c><c>   3</c></rc>
    <rc><c>C </c><c>   3</c></rc>
    <rc><c>C </c><c>   3</c></rc>
    <rc><c>C </c><c>   3</c></rc>
    <rc><c>C </c><c>   3</c></rc>
    <rc><c>C </c><c>   3</c></rc>
    <rc><c>C </c><c>   3</c></rc>
    <rc><c>C </c><c>   3</c></rc>
    <rc><c>C </c><c>   3</c></rc>
    <rc><c>C </c><c>   3</c></rc>
    <rc><c>C </c><c>   3</c></rc>
    <rc><c>C </c><c>   3</c></rc>
    <rc><c>C </c><c>   3</c></rc>
    <rc><c>C </c><c>   3</c></rc>
    <rc><c>C </c><c>   3</c></rc>
    <rc><c>C </c><c>   3</c></rc>
    <rc><c>C </c><c>   3</c></rc>
    <rc><c>C </c><c>   3</c></rc>
    <rc><c>C </c><c>   3</c></rc>
    <rc><c>C </c><c>   3</c></rc>
    <rc><c>C </c><c>   3</c></rc>
    <rc><c>C </c><c>   3</c></rc>
    <rc><c>C </c><c>   3</c></rc>
    <rc><c>C </c><c>   3</c></rc>
    <rc><c>C </c><c>   3</c></rc>
    <rc><c>C </c><c>   3</c></rc>
    <rc><c>C </c><c>   3</c></rc>
    <rc><c>C </c><c>   3</c></rc>
    <rc><c>C </c><c>   3</c></rc>
    <rc><c>C </c><c>   3</c></rc>
    <rc><c>C </c><c>   3</c></rc>
    <rc><c>C </c><c>   3</c></rc>
    <rc><c>C </c><c>   3</c></rc>
    <rc><c>C </c><c>   3</c></rc>
    <rc><c>C </c><c>   3</c></rc>
    <rc><c>C </c><c>   3</c></rc>
    <rc><c>C </c><c>   3</c></rc>
    <rc><c>C </c><c>   3</c></rc>
    <rc><c>C </c><c>   3</c></rc>
    <rc><c>C </c><c>   3</c></rc>
    <rc><c>C </c><c>   3</c></rc>
    <rc><c>C </c><c>   3</c></rc>
    <rc><c>C </c><c>   3</c></rc>
   </set>
  </array>
  <array name="atomtypes" >
   <dimension dim="1">type</dimension>
   <field type="int">atomspertype</field>
   <field type="string">element</field>
   <field>mass</field>
   <field>valence</field>
   <field type="string">pseudopotential</field>
   <set>
    <rc><c>  36</c><c>H </c><c>      1.00000000</c><c>      1.00000000</c><c>  PAW_PBE H 15Jun2001                   </c></rc>
    <rc><c>  18</c><c>N </c><c>     14.00100000</c><c>      5.00000000</c><c>  PAW_PBE N 08Apr2002                   </c></rc>
    <rc><c>  72</c><c>C </c><c>     12.01100000</c><c>      4.00000000</c><c>  PAW_PBE C 08Apr2002                   </c></rc>
   </set>
  </array>
 </atominfo>
 <structure name="initialpos" >
  <crystal>
   <varray name="basis" >
    <v>      23.17551578       0.00166606       0.00000000 </v>
    <v>     -11.58626610      20.06320493       0.00000000 </v>
    <v>      -0.00000005      -0.00059521      20.00000000 </v>
   </varray>
   <i name="volume">   9299.88851836 </i>
   <varray name="rec_basis" >
    <v>       0.04314719       0.02491700       0.00000074 </v>
    <v>      -0.00000358       0.04984042       0.00000148 </v>
    <v>       0.00000000       0.00000000       0.05000000 </v>
   </varray>
  </crystal>
  <varray name="positions" >
   <v>       0.18971237       0.75900572       0.66012875 </v>
   <v>       0.13675817       0.68438083       0.62233599 </v>
   <v>       0.26735566       0.42884353       0.66065072 </v>
   <v>       0.18467556       0.45191449       0.60832479 </v>
   <v>       0.07967214       0.39149791       0.51711145 </v>
   <v>       0.07832359       0.68555377       0.51574896 </v>
   <v>       0.40019092       0.06819773       0.51602422 </v>
   <v>       0.33939140       0.94556256       0.51657210 </v>
   <v>       0.40198007       0.32980787       0.51638607 </v>
   <v>       0.34014917       0.39056787       0.51585648 </v>
   <v>       0.29537100       0.84108254       0.60767954 </v>
   <v>       0.34196928       0.45089315       0.62253396 </v>
   <v>       0.24544249       0.62217522       0.50051827 </v>
   <v>       0.40440612       0.77990971       0.49988384 </v>
   <v>       0.40338285       0.62115046       0.50019322 </v>
   <v>       0.43850528       0.18073455       0.66042636 </v>
   <v>       0.45994336       0.12740217       0.62296176 </v>
   <v>       0.46217186       0.28615113       0.60733009 </v>
   <v>       0.69562710       0.06975317       0.51730934 </v>
   <v>       0.63477877       0.94709045       0.51620371 </v>
   <v>       0.69582038       0.62538249       0.51625653 </v>
   <v>       0.63396731       0.68616244       0.51674653 </v>
   <v>       0.59557996       0.83519424       0.66110594 </v>
   <v>       0.57404921       0.88823858       0.62302510 </v>
   <v>       0.57247502       0.72960751       0.60824866 </v>
   <v>       0.84553646       0.25703957       0.66075116 </v>
   <v>       0.89846917       0.33157251       0.62262291 </v>
   <v>       0.74000050       0.17450424       0.60837487 </v>
   <v>       0.77012787       0.58740565       0.66033281 </v>
   <v>       0.69539105       0.56597153       0.62289286 </v>
   <v>       0.85174335       0.56359758       0.60733854 </v>
   <v>       0.95707432       0.32975220       0.51595795 </v>
   <v>       0.95572313       0.62380701       0.51633884 </v>
   <v>       0.63077133       0.23546289       0.50106358 </v>
   <v>       0.63263650       0.39492347       0.49993781 </v>
   <v>       0.79001554       0.39323692       0.49959233 </v>
   <v>       0.17296695       0.73269218       0.61710685 </v>
   <v>       0.29364942       0.43877048       0.61758946 </v>
   <v>       0.24365095       0.72510465       0.45540007 </v>
   <v>       0.24342904       0.51684858       0.45475521 </v>
   <v>       0.30095178       0.78209971       0.45401305 </v>
   <v>       0.30042816       0.51658510       0.45586854 </v>
   <v>       0.44818967       0.16383399       0.61758325 </v>
   <v>       0.51005640       0.78231547       0.45528064 </v>
   <v>       0.50983167       0.72502656       0.45380914 </v>
   <v>       0.52670331       0.23379669       0.45573415 </v>
   <v>       0.52724358       0.29122368       0.45406767 </v>
   <v>       0.58580333       0.85178016       0.61811356 </v>
   <v>       0.86204462       0.28333335       0.61770149 </v>
   <v>       0.74355112       0.57769123       0.61748830 </v>
   <v>       0.79118062       0.29018747       0.45584316 </v>
   <v>       0.73381788       0.23327792       0.45479361 </v>
   <v>       0.73521774       0.49946752       0.45547839 </v>
   <v>       0.79209727       0.49895251       0.45387148 </v>
   <v>       0.21688065       0.74883297       0.56494103 </v>
   <v>       0.20438241       0.70509140       0.51002096 </v>
   <v>       0.21747408       0.46821529       0.56470920 </v>
   <v>       0.27704447       0.46613642       0.56542656 </v>
   <v>       0.05332363       0.52555906       0.52135670 </v>
   <v>       0.08901990       0.48960918       0.51984790 </v>
   <v>       0.15910259       0.52581782       0.51350105 </v>
   <v>       0.15875043       0.63166279       0.51312996 </v>
   <v>       0.08857446       0.59723793       0.51939431 </v>
   <v>       0.05219667       0.41832122       0.51977002 </v>
   <v>       0.05127318       0.63126074       0.51893501 </v>
   <v>       0.27864778       0.80824081       0.56408174 </v>
   <v>       0.39440159       0.86626971       0.51289936 </v>
   <v>       0.39367050       0.97306921       0.51952369 </v>
   <v>       0.39396270       0.52499928       0.51311875 </v>
   <v>       0.39442697       0.41787430       0.51901710 </v>
   <v>       0.32057170       0.49728589       0.51035070 </v>
   <v>       0.20507347       0.49844268       0.51063611 </v>
   <v>       0.19170758       0.59516397       0.50828221 </v>
   <v>       0.32109871       0.82044317       0.50991419 </v>
   <v>       0.49980252       0.97204323       0.52155169 </v>
   <v>       0.42819713       0.93631900       0.51962475 </v>
   <v>       0.50053478       0.86664467       0.51307622 </v>
   <v>       0.53622511       0.93680988       0.51962985 </v>
   <v>       0.53518417       0.04328899       0.52174862 </v>
   <v>       0.49877320       0.07854510       0.51984215 </v>
   <v>       0.53455888       0.14875232       0.51366497 </v>
   <v>       0.42745370       0.04117795       0.51930665 </v>
   <v>       0.50003606       0.52565661       0.52126530 </v>
   <v>       0.53594449       0.59729477       0.51946711 </v>
   <v>       0.49976664       0.63115772       0.51281669 </v>
   <v>       0.42837804       0.48921943       0.51938993 </v>
   <v>       0.53591008       0.49028906       0.52129235 </v>
   <v>       0.53626910       0.38485452       0.51264734 </v>
   <v>       0.50002395       0.41865460       0.51934561 </v>
   <v>       0.42875476       0.38410711       0.51926007 </v>
   <v>       0.52847239       0.82113795       0.51019252 </v>
   <v>       0.47831929       0.26921022       0.56392413 </v>
   <v>       0.47585745       0.20739702       0.56515475 </v>
   <v>       0.50700275       0.19455957       0.51039276 </v>
   <v>       0.43111966       0.83364721       0.50780057 </v>
   <v>       0.43043916       0.59445387       0.50789923 </v>
   <v>       0.52730699       0.70452475       0.50994195 </v>
   <v>       0.50880456       0.31151829       0.50971041 </v>
   <v>       0.60753860       0.97413169       0.51946765 </v>
   <v>       0.60399588       0.18170159       0.50875352 </v>
   <v>       0.64065603       0.14904154       0.51375880 </v>
   <v>       0.60680300       0.07897451       0.52013925 </v>
   <v>       0.64133279       0.04222950       0.52000685 </v>
   <v>       0.60720810       0.63185721       0.51954510 </v>
   <v>       0.60757470       0.52675571       0.51959578 </v>
   <v>       0.64204568       0.49105102       0.51325673 </v>
   <v>       0.64153467       0.59809218       0.51935204 </v>
   <v>       0.55682135       0.74661330       0.56452623 </v>
   <v>       0.55900480       0.80831009       0.56552706 </v>
   <v>       0.75656623       0.20727130       0.56472467 </v>
   <v>       0.81824969       0.26680168       0.56542168 </v>
   <v>       0.83074343       0.31028346       0.51025968 </v>
   <v>       0.81870629       0.54745946       0.56389835 </v>
   <v>       0.75936003       0.54990793       0.56508432 </v>
   <v>       0.71544670       0.51879689       0.51023961 </v>
   <v>       0.98208269       0.48973567       0.52116796 </v>
   <v>       0.94677557       0.41805058       0.51934368 </v>
   <v>       0.87659829       0.38367696       0.51289808 </v>
   <v>       0.87641197       0.48956390       0.51246567 </v>
   <v>       0.94643441       0.52571127       0.51921425 </v>
   <v>       0.98410268       0.38404416       0.51920653 </v>
   <v>       0.98319504       0.59698856       0.51918914 </v>
   <v>       0.60560182       0.42161625       0.50781551 </v>
   <v>       0.71395006       0.19493125       0.51069347 </v>
   <v>       0.83064346       0.51713036       0.50962059 </v>
   <v>       0.84373274       0.42022797       0.50748485 </v>
  </varray>
 </structure>
 <calculation>
  <scstep>
   <time name="dav">  441.03  445.90</time>
   <time name="total">  441.17  446.05</time>
   <energy>
    <i name="alphaZ">     86.99572850 </i>
    <i name="ewald">  53767.03013443 </i>
    <i name="hartreedc"> -66850.61115858 </i>
    <i name="XCdc">   1452.84220584 </i>
    <i name="pawpsdc">  39516.52739089 </i>
    <i name="pawaedc"> -39591.75408290 </i>
    <i name="eentropy">     -0.00000000 </i>
    <i name="bandstr">  -5108.74526327 </i>
    <i name="atom">  15805.82512633 </i>
    <i name="e_fr_energy">   -921.88991875 </i>
    <i name="e_wo_entrp">   -921.88991875 </i>
    <i name="e_0_energy">   -921.88991875 </i>
   </energy>
  </scstep>
  <scstep>
   <time name="dav">  511.75  517.47</time>
   <time name="total">  511.75  517.47</time>
   <energy>
    <i name="e_fr_energy">   -922.73838567 </i>
    <i name="e_wo_entrp">   -922.73838567 </i>
    <i name="e_0_energy">   -922.73838567 </i>
   </energy>
  </scstep>
  <scstep>
   <time name="dav">  554.55  560.60</time>
   <time name="total">  554.55  560.61</time>
   <energy>
    <i name="e_fr_energy">   -922.76101701 </i>
    <i name="e_wo_entrp">   -922.76101701 </i>
    <i name="e_0_energy">   -922.76101701 </i>
   </energy>
  </scstep>
  <scstep>
   <time name="dav">  505.02  510.48</time>
   <time name="total">  505.03  510.48</time>
   <energy>
    <i name="e_fr_energy">   -922.76147373 </i>
    <i name="e_wo_entrp">   -922.76147373 </i>
    <i name="e_0_energy">   -922.76147373 </i>
   </energy>
  </scstep>
  <scstep>
   <time name="dav">  500.88  506.33</time>
   <time name="total">  500.88  506.34</time>
   <energy>
    <i name="e_fr_energy">   -922.76149753 </i>
    <i name="e_wo_entrp">   -922.76149753 </i>
    <i name="e_0_energy">   -922.76149753 </i>
   </energy>
  </scstep>
  <scstep>
   <time name="dav">  392.16  396.45</time>
   <time name="total">  392.16  396.45</time>
   <energy>
    <i name="alphaZ">     86.99572850 </i>
    <i name="ewald">  53767.03013443 </i>
    <i name="hartreedc"> -66850.61115858 </i>
    <i name="XCdc">   1452.84220584 </i>
    <i name="pawpsdc">  39516.52739089 </i>
    <i name="pawaedc"> -39591.75408290 </i>
    <i name="eentropy">     -0.00000000 </i>
    <i name="bandstr">  -5109.61684263 </i>
    <i name="atom">  15805.82512633 </i>
    <i name="e_fr_energy">   -922.76149812 </i>
    <i name="e_wo_entrp">   -922.76149812 </i>
    <i name="e_0_energy">   -922.76149812 </i>
   </energy>
  </scstep>
  <structure>
   <crystal>
    <varray name="basis" >
     <v>      23.17551578       0.00166606       0.00000000 </v>
     <v>     -11.58626610      20.06320493       0.00000000 </v>
     <v>      -0.00000005      -0.00059521      20.00000000 </v>
    </varray>
    <i name="volume">   9299.88851836 </i>
    <varray name="rec_basis" >
     <v>       0.04314719       0.02491700       0.00000074 </v>
     <v>      -0.00000358       0.04984042       0.00000148 </v>
     <v>       0.00000000       0.00000000       0.05000000 </v>
    </varray>
   </crystal>
   <varray name="positions" >
    <v>       0.18971237       0.75900572       0.66012875 </v>
    <v>       0.13675817       0.68438083       0.62233599 </v>
    <v>       0.26735566       0.42884353       0.66065072 </v>
    <v>       0.18467556       0.45191449       0.60832479 </v>
    <v>       0.07967214       0.39149791       0.51711145 </v>
    <v>       0.07832359       0.68555377       0.51574896 </v>
    <v>       0.40019092       0.06819773       0.51602422 </v>
    <v>       0.33939140       0.94556256       0.51657210 </v>
    <v>       0.40198007       0.32980787       0.51638607 </v>
    <v>       0.34014917       0.39056787       0.51585648 </v>
    <v>       0.29537100       0.84108254       0.60767954 </v>
    <v>       0.34196928       0.45089315       0.62253396 </v>
    <v>       0.24544249       0.62217522       0.50051827 </v>
    <v>       0.40440612       0.77990971       0.49988384 </v>
    <v>       0.40338285       0.62115046       0.50019322 </v>
    <v>       0.43850528       0.18073455       0.66042636 </v>
    <v>       0.45994336       0.12740217       0.62296176 </v>
    <v>       0.46217186       0.28615113       0.60733009 </v>
    <v>       0.69562710       0.06975317       0.51730934 </v>
    <v>       0.63477877       0.94709045       0.51620371 </v>
    <v>       0.69582038       0.62538249       0.51625653 </v>
    <v>       0.63396731       0.68616244       0.51674653 </v>
    <v>       0.59557996       0.83519424       0.66110594 </v>
    <v>       0.57404921       0.88823858       0.62302510 </v>
    <v>       0.57247502       0.72960751       0.60824866 </v>
    <v>       0.84553646       0.25703957       0.66075116 </v>
    <v>       0.89846917       0.33157251       0.62262291 </v>
    <v>       0.74000050       0.17450424       0.60837487 </v>
    <v>       0.77012787       0.58740565       0.66033281 </v>
    <v>       0.69539105       0.56597153       0.62289286 </v>
    <v>       0.85174335       0.56359758       0.60733854 </v>
    <v>       0.95707432       0.32975220       0.51595795 </v>
    <v>       0.95572313       0.62380701       0.51633884 </v>
    <v>       0.63077133       0.23546289       0.50106358 </v>
    <v>       0.63263650       0.39492347       0.49993781 </v>
    <v>       0.79001554       0.39323692       0.49959233 </v>
    <v>       0.17296695       0.73269218       0.61710685 </v>
    <v>       0.29364942       0.43877048       0.61758946 </v>
    <v>       0.24365095       0.72510465       0.45540007 </v>
    <v>       0.24342904       0.51684858       0.45475521 </v>
    <v>       0.30095178       0.78209971       0.45401305 </v>
    <v>       0.30042816       0.51658510       0.45586854 </v>
    <v>       0.44818967       0.16383399       0.61758325 </v>
    <v>       0.51005640       0.78231547       0.45528064 </v>
    <v>       0.50983167       0.72502656       0.45380914 </v>
    <v>       0.52670331       0.23379669       0.45573415 </v>
    <v>       0.52724358       0.29122368       0.45406767 </v>
    <v>       0.58580333       0.85178016       0.61811356 </v>
    <v>       0.86204462       0.28333335       0.61770149 </v>
    <v>       0.74355112       0.57769123       0.61748830 </v>
    <v>       0.79118062       0.29018747       0.45584316 </v>
    <v>       0.73381788       0.23327792       0.45479361 </v>
    <v>       0.73521774       0.49946752       0.45547839 </v>
    <v>       0.79209727       0.49895251       0.45387148 </v>
    <v>       0.21688065       0.74883297       0.56494103 </v>
    <v>       0.20438241       0.70509140       0.51002096 </v>
    <v>       0.21747408       0.46821529       0.56470920 </v>
    <v>       0.27704447       0.46613642       0.56542656 </v>
    <v>       0.05332363       0.52555906       0.52135670 </v>
    <v>       0.08901990       0.48960918       0.51984790 </v>
    <v>       0.15910259       0.52581782       0.51350105 </v>
    <v>       0.15875043       0.63166279       0.51312996 </v>
    <v>       0.08857446       0.59723793       0.51939431 </v>
    <v>       0.05219667       0.41832122       0.51977002 </v>
    <v>       0.05127318       0.63126074       0.51893501 </v>
    <v>       0.27864778       0.80824081       0.56408174 </v>
    <v>       0.39440159       0.86626971       0.51289936 </v>
    <v>       0.39367050       0.97306921       0.51952369 </v>
    <v>       0.39396270       0.52499928       0.51311875 </v>
    <v>       0.39442697       0.41787430       0.51901710 </v>
    <v>       0.32057170       0.49728589       0.51035070 </v>
    <v>       0.20507347       0.49844268       0.51063611 </v>
    <v>       0.19170758       0.59516397       0.50828221 </v>
    <v>       0.32109871       0.82044317       0.50991419 </v>
    <v>       0.49980252       0.97204323       0.52155169 </v>
    <v>       0.42819713       0.93631900       0.51962475 </v>
    <v>       0.50053478       0.86664467       0.51307622 </v>
    <v>       0.53622511       0.93680988       0.51962985 </v>
    <v>       0.53518417       0.04328899       0.52174862 </v>
    <v>       0.49877320       0.07854510       0.51984215 </v>
    <v>       0.53455888       0.14875232       0.51366497 </v>
    <v>       0.42745370       0.04117795       0.51930665 </v>
    <v>       0.50003606       0.52565661       0.52126530 </v>
    <v>       0.53594449       0.59729477       0.51946711 </v>
    <v>       0.49976664       0.63115772       0.51281669 </v>
    <v>       0.42837804       0.48921943       0.51938993 </v>
    <v>       0.53591008       0.49028906       0.52129235 </v>
    <v>       0.53626910       0.38485452       0.51264734 </v>
    <v>       0.50002395       0.41865460       0.51934561 </v>
    <v>       0.42875476       0.38410711       0.51926007 </v>
    <v>       0.52847239       0.82113795       0.51019252 </v>
    <v>       0.47831929       0.26921022       0.56392413 </v>
    <v>       0.47585745       0.20739702       0.56515475 </v>
    <v>       0.50700275       0.19455957       0.51039276 </v>
    <v>       0.43111966       0.83364721       0.50780057 </v>
    <v>       0.43043916       0.59445387       0.50789923 </v>
    <v>       0.52730699       0.70452475       0.50994195 </v>
    <v>       0.50880456       0.31151829       0.50971041 </v>
    <v>       0.60753860       0.97413169       0.51946765 </v>
    <v>       0.60399588       0.18170159       0.50875352 </v>
    <v>       0.64065603       0.14904154       0.51375880 </v>
    <v>       0.60680300       0.07897451       0.52013925 </v>
    <v>       0.64133279       0.04222950       0.52000685 </v>
    <v>       0.60720810       0.63185721       0.51954510 </v>
    <v>       0.60757470       0.52675571       0.51959578 </v>
    <v>       0.64204568       0.49105102       0.51325673 </v>
    <v>       0.64153467       0.59809218       0.51935204 </v>
    <v>       0.55682135       0.74661330       0.56452623 </v>
    <v>       0.55900480       0.80831009       0.56552706 </v>
    <v>       0.75656623       0.20727130       0.56472467 </v>
    <v>       0.81824969       0.26680168       0.56542168 </v>
    <v>       0.83074343       0.31028346       0.51025968 </v>
    <v>       0.81870629       0.54745946       0.56389835 </v>
    <v>       0.75936003       0.54990793       0.56508432 </v>
    <v>       0.71544670       0.51879689       0.51023961 </v>
    <v>       0.98208269       0.48973567       0.52116796 </v>
    <v>       0.94677557       0.41805058       0.51934368 </v>
    <v>       0.87659829       0.38367696       0.51289808 </v>
    <v>       0.87641197       0.48956390       0.51246567 </v>
    <v>       0.94643441       0.52571127       0.51921425 </v>
    <v>       0.98410268       0.38404416       0.51920653 </v>
    <v>       0.98319504       0.59698856       0.51918914 </v>
    <v>       0.60560182       0.42161625       0.50781551 </v>
    <v>       0.71395006       0.19493125       0.51069347 </v>
    <v>       0.83064346       0.51713036       0.50962059 </v>
    <v>       0.84373274       0.42022797       0.50748485 </v>
   </varray>
  </structure>
  <varray name="forces" >
   <v>      -0.00393292       0.00251718       0.00001110 </v>
   <v>      -0.00038989       0.00449391      -0.00051286 </v>
   <v>       0.00110188       0.00082443      -0.00253745 </v>
   <v>      -0.00059970       0.00050178       0.00174792 </v>
   <v>       0.00038927      -0.00068479      -0.00018545 </v>
   <v>      -0.00186266       0.00226276      -0.00245884 </v>
   <v>      -0.00050065       0.00007989       0.00058011 </v>
   <v>       0.00109374      -0.00065153      -0.00056598 </v>
   <v>      -0.00000561       0.00196727      -0.00178776 </v>
   <v>      -0.00174311       0.00017614      -0.00263311 </v>
   <v>       0.00015925       0.00240378      -0.00225136 </v>
   <v>      -0.00159502      -0.00186496       0.00140606 </v>
   <v>       0.00031261       0.00087155       0.00268320 </v>
   <v>       0.00270388      -0.00086855       0.00002966 </v>
   <v>       0.00025632       0.00062083      -0.00142921 </v>
   <v>       0.00038986      -0.00371389      -0.00086231 </v>
   <v>      -0.00103764      -0.00013518       0.00146824 </v>
   <v>       0.00003145      -0.00088893      -0.00239875 </v>
   <v>      -0.00185292      -0.00028043      -0.00101724 </v>
   <v>       0.00097875       0.00076183      -0.00043064 </v>
   <v>       0.00094920       0.00193385       0.00043880 </v>
   <v>      -0.00002898      -0.00176177       0.00020639 </v>
   <v>      -0.00367485      -0.00072760      -0.00000681 </v>
   <v>      -0.00443271       0.00155452       0.00247061 </v>
   <v>      -0.00415801      -0.00134823      -0.00059568 </v>
   <v>       0.00095105       0.00175919      -0.00301306 </v>
   <v>      -0.00080266       0.00001469      -0.00172925 </v>
   <v>      -0.00060133       0.00058552      -0.00027953 </v>
   <v>       0.00132405      -0.00056426      -0.00017790 </v>
   <v>       0.00016544      -0.00095046       0.00014638 </v>
   <v>      -0.00006589      -0.00084106      -0.00143494 </v>
   <v>       0.00128714      -0.00122062      -0.00010016 </v>
   <v>       0.00080950      -0.00146432      -0.00273528 </v>
   <v>      -0.00210870       0.00073966       0.00135769 </v>
   <v>       0.00047977      -0.00010186       0.00163618 </v>
   <v>       0.00031987       0.00012079       0.00115255 </v>
   <v>      -0.00175761      -0.00016112       0.00108110 </v>
   <v>       0.00151066      -0.00122561      -0.00225176 </v>
   <v>       0.00162730      -0.00027093      -0.00354483 </v>
   <v>       0.00412953       0.00330139      -0.00134827 </v>
   <v>      -0.00169298      -0.00356315      -0.00026724 </v>
   <v>       0.00023974      -0.00092422      -0.00272759 </v>
   <v>      -0.00213507       0.00307748       0.00147787 </v>
   <v>      -0.00288948       0.00318753      -0.00011743 </v>
   <v>      -0.00318906       0.00065820       0.00250989 </v>
   <v>       0.00150942      -0.00201667      -0.00108754 </v>
   <v>      -0.00008715       0.00036189       0.00111867 </v>
   <v>       0.00052301      -0.00397348       0.00523171 </v>
   <v>       0.00072149      -0.00160682       0.00121114 </v>
   <v>       0.00068243       0.00017502      -0.00013113 </v>
   <v>      -0.00054648      -0.00297617      -0.00034661 </v>
   <v>       0.00107216       0.00291142      -0.00152506 </v>
   <v>       0.00294380      -0.00015704       0.00015722 </v>
   <v>      -0.00488682       0.00096190      -0.00075018 </v>
   <v>       0.00036569       0.00147413       0.00323047 </v>
   <v>      -0.00106809       0.00022850       0.00104558 </v>
   <v>       0.00136069      -0.00288585       0.00003092 </v>
   <v>      -0.00083885       0.00129855       0.00413262 </v>
   <v>      -0.00195381       0.00040411      -0.00169401 </v>
   <v>      -0.00188496       0.00186643       0.00236735 </v>
   <v>      -0.00205934      -0.00224826       0.00120163 </v>
   <v>      -0.00132891       0.00111456      -0.00000300 </v>
   <v>       0.00080454      -0.00225445       0.00094398 </v>
   <v>       0.00034917       0.00028231      -0.00120483 </v>
   <v>      -0.00004771      -0.00122830      -0.00155360 </v>
   <v>      -0.00267822      -0.00101976       0.00262082 </v>
   <v>       0.00286867       0.00493378       0.00053579 </v>
   <v>       0.00137990      -0.00178895       0.00052530 </v>
   <v>       0.00120034      -0.00111123      -0.00002736 </v>
   <v>       0.00334471       0.00129702      -0.00188243 </v>
   <v>       0.00056598       0.00190351       0.00306800 </v>
   <v>      -0.00212194      -0.00053720      -0.00189478 </v>
   <v>       0.00161344      -0.00176143      -0.00007896 </v>
   <v>       0.00242317       0.00321465      -0.00025174 </v>
   <v>       0.00192435      -0.00005727      -0.00127497 </v>
   <v>       0.00220301      -0.00106792       0.00017727 </v>
   <v>       0.00040483       0.00048174      -0.00041990 </v>
   <v>       0.00031016      -0.00054351      -0.00019631 </v>
   <v>      -0.00020208      -0.00117458      -0.00028684 </v>
   <v>       0.00018464      -0.00092493       0.00255420 </v>
   <v>      -0.00087587      -0.00083235       0.00128081 </v>
   <v>       0.00215704      -0.00107934      -0.00037892 </v>
   <v>       0.00096091       0.00187595      -0.00236104 </v>
   <v>       0.00093291       0.00053064       0.00043634 </v>
   <v>       0.00370812      -0.00441655       0.00151779 </v>
   <v>       0.00009724       0.00327825      -0.00017500 </v>
   <v>      -0.00108340       0.00019545      -0.00160253 </v>
   <v>      -0.00461967       0.00170303       0.00149251 </v>
   <v>      -0.00207944       0.00182141      -0.00064153 </v>
   <v>       0.00133206      -0.00115100      -0.00258877 </v>
   <v>      -0.00318108      -0.00408838       0.00081308 </v>
   <v>      -0.00185604      -0.00279888       0.00334373 </v>
   <v>       0.00168935       0.00128582       0.00099499 </v>
   <v>      -0.00214152       0.00183034       0.00024711 </v>
   <v>       0.00108911      -0.00050975      -0.00192313 </v>
   <v>       0.00073615       0.00167564      -0.00265685 </v>
   <v>      -0.00013386       0.00233152       0.00298882 </v>
   <v>       0.00149129      -0.00030681      -0.00162737 </v>
   <v>      -0.00003267       0.00275562       0.00020001 </v>
   <v>       0.00223283       0.00011550       0.00072368 </v>
   <v>       0.00227885      -0.00203931       0.00174706 </v>
   <v>      -0.00073373       0.00031113       0.00114594 </v>
   <v>      -0.00020833       0.00174187      -0.00010287 </v>
   <v>      -0.00060244       0.00213752      -0.00107771 </v>
   <v>      -0.00019511      -0.00062703       0.00151012 </v>
   <v>       0.00273745      -0.00004891       0.00055756 </v>
   <v>      -0.00129358       0.00002284      -0.00073082 </v>
   <v>       0.00236941       0.00353379       0.00098388 </v>
   <v>      -0.00100257      -0.00761391       0.00004261 </v>
   <v>       0.00189068       0.00169465       0.00222941 </v>
   <v>      -0.00198399      -0.00089369      -0.00047810 </v>
   <v>       0.00086811      -0.00246882       0.00034380 </v>
   <v>      -0.00028383       0.00068185      -0.00201119 </v>
   <v>       0.00061476      -0.00069448      -0.00100796 </v>
   <v>      -0.00033983       0.00045023       0.00016643 </v>
   <v>       0.00235264       0.00002514      -0.00103381 </v>
   <v>      -0.00048468       0.00067260       0.00256147 </v>
   <v>       0.00218686      -0.00224466       0.00091490 </v>
   <v>       0.00139612       0.00280620       0.00134004 </v>
   <v>       0.00181528      -0.00164194       0.00081422 </v>
   <v>       0.00000700       0.00044657      -0.00040810 </v>
   <v>      -0.00058443       0.00001521      -0.00139174 </v>
   <v>       0.00088411      -0.00242315      -0.00061498 </v>
   <v>      -0.00303312      -0.00148193      -0.00056553 </v>
   <v>       0.00246701      -0.00082550       0.00102750 </v>
   <v>      -0.00075020       0.00047127      -0.00259231 </v>
  </varray>
  <varray name="stress" >
   <v>      -0.00639523       0.00169109      -0.00470238 </v>
   <v>       0.00169109       0.00050951      -0.00430127 </v>
   <v>      -0.00470238      -0.00430127      -0.30953320 </v>
  </varray>
  <energy>
   <i name="e_fr_energy">   -926.03969367 </i>
   <i name="e_wo_entrp">   -926.03969367 </i>
   <i name="e_0_energy">     -0.00000000 </i>
  </energy>
  <time name="totalsc"> 3428.80 3467.91</time>
  <eigenvalues>
   <array>
    <dimension dim="1">band</dimension>
    <dimension dim="2">kpoint</dimension>
    <dimension dim="3">spin</dimension>
    <field>eigene</field>
    <field>occ</field>
    <set>
     <set comment="spin 1">
      <set comment="kpoint 1">
       <r>  -24.5816    1.0000 </r>
       <r>  -24.5804    1.0000 </r>
       <r>  -24.5730    1.0000 </r>
       <r>  -24.5711    1.0000 </r>
       <r>  -24.5680    1.0000 </r>
       <r>  -24.5660    1.0000 </r>
       <r>  -23.0104    1.0000 </r>
       <r>  -23.0098    1.0000 </r>
       <r>  -23.0084    1.0000 </r>
       <r>  -23.0081    1.0000 </r>
       <r>  -23.0069    1.0000 </r>
       <r>  -23.0059    1.0000 </r>
       <r>  -21.8818    1.0000 </r>
       <r>  -21.8811    1.0000 </r>
       <r>  -21.8164    1.0000 </r>
       <r>  -21.2014    1.0000 </r>
       <r>  -21.2002    1.0000 </r>
       <r>  -20.8998    1.0000 </r>
       <r>  -20.6043    1.0000 </r>
       <r>  -20.4315    1.0000 </r>
       <r>  -20.4288    1.0000 </r>
       <r>  -20.3864    1.0000 </r>
       <r>  -20.3398    1.0000 </r>
       <r>  -20.3393    1.0000 </r>
       <r>  -19.8096    1.0000 </r>
       <r>  -19.7261    1.0000 </r>
       <r>  -19.5791    1.0000 </r>
       <r>  -19.5766    1.0000 </r>
       <r>  -19.5311    1.0000 </r>
       <r>  -19.5300    1.0000 </r>
       <r>  -19.1601    1.0000 </r>
       <r>  -19.1598    1.0000 </r>
       <r>  -19.1040    1.0000 </r>
       <r>  -18.9553    1.0000 </r>
       <r>  -18.8177    1.0000 </r>
       <r>  -18.8163    1.0000 </r>
       <r>  -18.4174    1.0000 </r>
       <r>  -18.4164    1.0000 </r>
       <r>  -18.1777    1.0000 </r>
       <r>  -18.0829    1.0000 </r>
       <r>  -17.9471    1.0000 </r>
       <r>  -17.9470    1.0000 </r>
       <r>  -17.8150    1.0000 </r>
       <r>  -17.7779    1.0000 </r>
       <r>  -17.7762    1.0000 </r>
       <r>  -17.2431    1.0000 </r>
       <r>  -17.2416    1.0000 </r>
       <r>  -16.8186    1.0000 </r>
       <r>  -16.2388    1.0000 </r>
       <r>  -16.2352    1.0000 </r>
       <r>  -15.8933    1.0000 </r>
       <r>  -15.8194    1.0000 </r>
       <r>  -15.8184    1.0000 </r>
       <r>  -15.7457    1.0000 </r>
       <r>  -15.7445    1.0000 </r>
       <r>  -15.7105    1.0000 </r>
       <r>  -15.5660    1.0000 </r>
       <r>  -15.4830    1.0000 </r>
       <r>  -15.4635    1.0000 </r>
       <r>  -15.4618    1.0000 </r>
       <r>  -15.1325    1.0000 </r>
       <r>  -14.9716    1.0000 </r>
       <r>  -14.9696    1.0000 </r>
       <r>  -14.9655    1.0000 </r>
       <r>  -14.7656    1.0000 </r>
       <r>  -14.7644    1.0000 </r>
       <r>  -14.4936    1.0000 </r>
       <r>  -14.4678    1.0000 </r>
       <r>  -14.3629    1.0000 </r>
       <r>  -14.3614    1.0000 </r>
       <r>  -14.0948    1.0000 </r>
       <r>  -14.0943    1.0000 </r>
       <r>  -13.3348    1.0000 </r>
       <r>  -13.3342    1.0000 </r>
       <r>  -13.2623    1.0000 </r>
       <r>  -13.2295    1.0000 </r>
       <r>  -13.1944    1.0000 </r>
       <r>  -13.1927    1.0000 </r>
       <r>  -13.0278    1.0000 </r>
       <r>  -12.9912    1.0000 </r>
       <r>  -12.9550    1.0000 </r>
       <r>  -12.9539    1.0000 </r>
       <r>  -12.8834    1.0000 </r>
       <r>  -12.8823    1.0000 </r>
       <r>  -12.4476    1.0000 </r>
       <r>  -12.4279    1.0000 </r>
       <r>  -12.4267    1.0000 </r>
       <r>  -12.3918    1.0000 </r>
       <r>  -12.3912    1.0000 </r>
       <r>  -12.2519    1.0000 </r>
       <r>  -12.2510    1.0000 </r>
       <r>  -12.0869    1.0000 </r>
       <r>  -12.0850    1.0000 </r>
       <r>  -11.9410    1.0000 </r>
       <r>  -11.8600    1.0000 </r>
       <r>  -11.8595    1.0000 </r>
       <r>  -11.5705    1.0000 </r>
       <r>  -11.5422    1.0000 </r>
       <r>  -11.5410    1.0000 </r>
       <r>  -11.4530    1.0000 </r>
       <r>  -11.4094    1.0000 </r>
       <r>  -11.4085    1.0000 </r>
       <r>  -11.1341    1.0000 </r>
       <r>  -11.1332    1.0000 </r>
       <r>  -11.0993    1.0000 </r>
       <r>  -11.0981    1.0000 </r>
       <r>  -11.0635    1.0000 </r>
       <r>  -11.0170    1.0000 </r>
       <r>  -10.6406    1.0000 </r>
       <r>  -10.6403    1.0000 </r>
       <r>  -10.5666    1.0000 </r>
       <r>  -10.5650    1.0000 </r>
       <r>  -10.5258    1.0000 </r>
       <r>  -10.4467    1.0000 </r>
       <r>  -10.4448    1.0000 </r>
       <r>  -10.4387    1.0000 </r>
       <r>  -10.2431    1.0000 </r>
       <r>  -10.1103    1.0000 </r>
       <r>  -10.0918    1.0000 </r>
       <r>  -10.0915    1.0000 </r>
       <r>  -10.0279    1.0000 </r>
       <r>   -9.9728    1.0000 </r>
       <r>   -9.9717    1.0000 </r>
       <r>   -9.8590    1.0000 </r>
       <r>   -9.7908    1.0000 </r>
       <r>   -9.7901    1.0000 </r>
       <r>   -9.7023    1.0000 </r>
       <r>   -9.6591    1.0000 </r>
       <r>   -9.6577    1.0000 </r>
       <r>   -9.5741    1.0000 </r>
       <r>   -9.5726    1.0000 </r>
       <r>   -9.5642    1.0000 </r>
       <r>   -9.3382    1.0000 </r>
       <r>   -9.3380    1.0000 </r>
       <r>   -9.2341    1.0000 </r>
       <r>   -9.2308    1.0000 </r>
       <r>   -9.2296    1.0000 </r>
       <r>   -9.1688    1.0000 </r>
       <r>   -9.1026    1.0000 </r>
       <r>   -9.1013    1.0000 </r>
       <r>   -9.0886    1.0000 </r>
       <r>   -9.0852    1.0000 </r>
       <r>   -8.9849    1.0000 </r>
       <r>   -8.9835    1.0000 </r>
       <r>   -8.6491    1.0000 </r>
       <r>   -8.6482    1.0000 </r>
       <r>   -8.5836    1.0000 </r>
       <r>   -8.5616    1.0000 </r>
       <r>   -8.5612    1.0000 </r>
       <r>   -8.4848    1.0000 </r>
       <r>   -8.4152    1.0000 </r>
       <r>   -8.3438    1.0000 </r>
       <r>   -8.3432    1.0000 </r>
       <r>   -8.2279    1.0000 </r>
       <r>   -8.2163    1.0000 </r>
       <r>   -8.2157    1.0000 </r>
       <r>   -8.1315    1.0000 </r>
       <r>   -8.1119    1.0000 </r>
       <r>   -8.1117    1.0000 </r>
       <r>   -8.1094    1.0000 </r>
       <r>   -8.0727    1.0000 </r>
       <r>   -8.0723    1.0000 </r>
       <r>   -7.6124    1.0000 </r>
       <r>   -7.5919    1.0000 </r>
       <r>   -7.5904    1.0000 </r>
       <r>   -7.4156    1.0000 </r>
       <r>   -7.4149    1.0000 </r>
       <r>   -7.3368    1.0000 </r>
       <r>   -7.1729    1.0000 </r>
       <r>   -7.1703    1.0000 </r>
       <r>   -7.1074    1.0000 </r>
       <r>   -6.8365    1.0000 </r>
       <r>   -6.6726    1.0000 </r>
       <r>   -6.6647    1.0000 </r>
       <r>   -6.6622    1.0000 </r>
       <r>   -6.5602    1.0000 </r>
       <r>   -6.5566    1.0000 </r>
       <r>   -6.4391    1.0000 </r>
       <r>   -6.4057    1.0000 </r>
       <r>   -6.4025    1.0000 </r>
       <r>   -6.2978    1.0000 </r>
       <r>   -6.2551    1.0000 </r>
       <r>   -6.2535    1.0000 </r>
       <r>   -6.0720    1.0000 </r>
       <r>   -6.0713    1.0000 </r>
       <r>   -6.0033    1.0000 </r>
       <r>   -5.9505    1.0000 </r>
       <r>   -5.9500    1.0000 </r>
       <r>   -5.9112    1.0000 </r>
       <r>   -5.4241    1.0000 </r>
       <r>   -5.4111    1.0000 </r>
       <r>   -5.4075    1.0000 </r>
       <r>   -5.2065    1.0000 </r>
       <r>   -5.2044    1.0000 </r>
       <r>   -5.2040    1.0000 </r>
       <r>   -5.2015    1.0000 </r>
       <r>   -5.1531    1.0000 </r>
       <r>   -5.1173    1.0000 </r>
       <r>   -4.6120    1.0000 </r>
       <r>   -4.6092    1.0000 </r>
       <r>   -4.6052    1.0000 </r>
       <r>   -4.2932    1.0000 </r>
       <r>   -4.2927    1.0000 </r>
       <r>   -4.2577    1.0000 </r>
       <r>   -4.2569    1.0000 </r>
       <r>   -4.2537    1.0000 </r>
       <r>   -4.1459    1.0000 </r>
       <r>   -2.3063    0.0000 </r>
       <r>   -2.3008    0.0000 </r>
       <r>   -2.2659    0.0000 </r>
       <r>   -1.5395    0.0000 </r>
       <r>   -1.4550    0.0000 </r>
       <r>   -1.4299    0.0000 </r>
       <r>   -1.4268    0.0000 </r>
       <r>   -1.3632    0.0000 </r>
       <r>   -1.3626    0.0000 </r>
       <r>   -1.2219    0.0000 </r>
       <r>   -1.2006    0.0000 </r>
       <r>   -1.1636    0.0000 </r>
       <r>   -1.1625    0.0000 </r>
       <r>   -1.0584    0.0000 </r>
       <r>   -1.0558    0.0000 </r>
       <r>   -0.9365    0.0000 </r>
       <r>   -0.9057    0.0000 </r>
       <r>   -0.9044    0.0000 </r>
       <r>   -0.8279    0.0000 </r>
       <r>   -0.6078    0.0000 </r>
       <r>   -0.6048    0.0000 </r>
       <r>   -0.5217    0.0000 </r>
       <r>   -0.3042    0.0000 </r>
       <r>   -0.2783    0.0000 </r>
       <r>   -0.2777    0.0000 </r>
       <r>   -0.2644    0.0000 </r>
       <r>   -0.2637    0.0000 </r>
       <r>   -0.1570    0.0000 </r>
       <r>    0.0388    0.0000 </r>
       <r>    0.0421    0.0000 </r>
       <r>    0.3205    0.0000 </r>
       <r>    0.3209    0.0000 </r>
       <r>    0.3480    0.0000 </r>
       <r>    0.3808    0.0000 </r>
       <r>    0.5225    0.0000 </r>
       <r>    0.5641    0.0000 </r>
       <r>    0.5650    0.0000 </r>
       <r>    0.5783    0.0000 </r>
       <r>    0.6645    0.0000 </r>
       <r>    0.6658    0.0000 </r>
       <r>    0.7348    0.0000 </r>
       <r>    0.7694    0.0000 </r>
       <r>    0.7704    0.0000 </r>
       <r>    0.7907    0.0000 </r>
       <r>    0.7912    0.0000 </r>
       <r>    0.8576    0.0000 </r>
       <r>    0.9262    0.0000 </r>
       <r>    1.0941    0.0000 </r>
       <r>    1.1243    0.0000 </r>
       <r>    1.1450    0.0000 </r>
       <r>    1.1458    0.0000 </r>
       <r>    1.2040    0.0000 </r>
       <r>    1.2074    0.0000 </r>
       <r>    1.2910    0.0000 </r>
       <r>    1.2960    0.0000 </r>
       <r>    1.3070    0.0000 </r>
       <r>    1.3167    0.0000 </r>
       <r>    1.3311    0.0000 </r>
       <r>    1.3330    0.0000 </r>
       <r>    1.3411    0.0000 </r>
       <r>    1.3673    0.0000 </r>
       <r>    1.3865    0.0000 </r>
       <r>    1.5095    0.0000 </r>
       <r>    1.5319    0.0000 </r>
       <r>    1.5328    0.0000 </r>
      </set>
      <set comment="kpoint 2">
       <r>  -24.5816    1.0000 </r>
       <r>  -24.5804    1.0000 </r>
       <r>  -24.5730    1.0000 </r>
       <r>  -24.5711    1.0000 </r>
       <r>  -24.5680    1.0000 </r>
       <r>  -24.5660    1.0000 </r>
       <r>  -23.0104    1.0000 </r>
       <r>  -23.0098    1.0000 </r>
       <r>  -23.0084    1.0000 </r>
       <r>  -23.0081    1.0000 </r>
       <r>  -23.0069    1.0000 </r>
       <r>  -23.0059    1.0000 </r>
       <r>  -21.8818    1.0000 </r>
       <r>  -21.8811    1.0000 </r>
       <r>  -21.8165    1.0000 </r>
       <r>  -21.2010    1.0000 </r>
       <r>  -21.2002    1.0000 </r>
       <r>  -20.9005    1.0000 </r>
       <r>  -20.6042    1.0000 </r>
       <r>  -20.4311    1.0000 </r>
       <r>  -20.4293    1.0000 </r>
       <r>  -20.3887    1.0000 </r>
       <r>  -20.3391    1.0000 </r>
       <r>  -20.3362    1.0000 </r>
       <r>  -19.8105    1.0000 </r>
       <r>  -19.7289    1.0000 </r>
       <r>  -19.5802    1.0000 </r>
       <r>  -19.5790    1.0000 </r>
       <r>  -19.5280    1.0000 </r>
       <r>  -19.5264    1.0000 </r>
       <r>  -19.1602    1.0000 </r>
       <r>  -19.1598    1.0000 </r>
       <r>  -19.1041    1.0000 </r>
       <r>  -18.9551    1.0000 </r>
       <r>  -18.8175    1.0000 </r>
       <r>  -18.8164    1.0000 </r>
       <r>  -18.4175    1.0000 </r>
       <r>  -18.4169    1.0000 </r>
       <r>  -18.1788    1.0000 </r>
       <r>  -18.0829    1.0000 </r>
       <r>  -17.9486    1.0000 </r>
       <r>  -17.9477    1.0000 </r>
       <r>  -17.8136    1.0000 </r>
       <r>  -17.7759    1.0000 </r>
       <r>  -17.7752    1.0000 </r>
       <r>  -17.2431    1.0000 </r>
       <r>  -17.2421    1.0000 </r>
       <r>  -16.8201    1.0000 </r>
       <r>  -16.2375    1.0000 </r>
[...]
       <r>   -19.1699    15.6362    61.5013 </r>
       <r>   -19.0739    28.8024    66.0000 </r>
       <r>   -18.9779     0.0016    66.0002 </r>
       <r>   -18.8818    21.2683    68.0422 </r>
       <r>   -18.7858    28.2058    71.0423 </r>
       <r>   -18.6898     3.1055    72.0000 </r>
       <r>   -18.5938     0.0000    72.0000 </r>
       <r>   -18.4978     8.7272    72.8379 </r>
       <r>   -18.4018    26.0829    75.6711 </r>
       <r>   -18.3057     9.8322    76.7779 </r>
       <r>   -18.2097     5.2721    77.6063 </r>
       <r>   -18.1137     2.7762    78.0000 </r>
       <r>   -18.0177    38.5710    81.7034 </r>
       <r>   -17.9217    19.7819    84.0000 </r>
       <r>   -17.8257     0.0832    84.0080 </r>
       <r>   -17.7297    21.6894    86.2496 </r>
       <r>   -17.6336    14.3498    87.8783 </r>
       <r>   -17.5376    11.2150    89.1770 </r>
       <r>   -17.4416     5.8988    90.0000 </r>
       <r>   -17.3456     9.2073    90.8840 </r>
       <r>   -17.2496     8.7028    91.9026 </r>
       <r>   -17.1536     7.0598    93.8117 </r>
       <r>   -17.0576     6.2034    94.4959 </r>
       <r>   -16.9615     6.2312    95.2320 </r>
       <r>   -16.8655     3.0779    95.5955 </r>
       <r>   -16.7695     3.4695    96.0000 </r>
       <r>   -16.6735     0.0000    96.0000 </r>
       <r>   -16.5775     0.0000    96.0000 </r>
       <r>   -16.4815     0.0000    96.0000 </r>
       <r>   -16.3855     0.0000    96.0000 </r>
       <r>   -16.2894     0.0009    96.0001 </r>
       <r>   -16.1934    25.0962    98.4097 </r>
       <r>   -16.0974     3.1228    98.7998 </r>
       <r>   -16.0014     7.8262    99.6182 </r>
       <r>   -15.9054     8.5779   100.5571 </r>
       <r>   -15.8094    36.8425   104.8737 </r>
       <r>   -15.7133    46.9538   110.2770 </r>
       <r>   -15.6173    20.9791   112.9144 </r>
       <r>   -15.5213    27.9253   115.7479 </r>
       <r>   -15.4253    35.4006   120.0000 </r>
       <r>   -15.3293     0.0000   120.0000 </r>
       <r>   -15.2333     0.0000   120.0000 </r>
       <r>   -15.1373     0.6867   120.0659 </r>
       <r>   -15.0412    18.1113   122.1729 </r>
       <r>   -14.9452    39.4152   126.3857 </r>
       <r>   -14.8492     6.1750   127.0934 </r>
       <r>   -14.7532    30.1302   130.4943 </r>
       <r>   -14.6572    10.0595   132.0000 </r>
       <r>   -14.5612    24.7648   134.3778 </r>
       <r>   -14.4652    13.0292   135.9512 </r>
       <r>   -14.3691     0.5201   136.0499 </r>
       <r>   -14.2731    22.5258   138.6634 </r>
       <r>   -14.1771    12.8386   139.9994 </r>
       <r>   -14.0811    32.8062   143.9837 </r>
       <r>   -13.9851     0.0000   144.0000 </r>
       <r>   -13.8891     0.0000   144.0000 </r>
       <r>   -13.7931     0.0000   144.0000 </r>
       <r>   -13.6970     0.0000   144.0000 </r>
       <r>   -13.6010     0.0000   144.0000 </r>
       <r>   -13.5050     0.0000   144.0000 </r>
       <r>   -13.4090     0.0000   144.0000 </r>
       <r>   -13.3130    27.3941   146.6302 </r>
       <r>   -13.2170    66.0459   153.3084 </r>
       <r>   -13.1210    14.5354   156.0000 </r>
       <r>   -13.0249    10.1202   156.9717 </r>
       <r>   -12.9289    39.9857   162.9738 </r>
       <r>   -12.8329    43.7327   168.0000 </r>
       <r>   -12.7369     0.0000   168.0000 </r>
       <r>   -12.6409     0.0000   168.0000 </r>
       <r>   -12.5449     0.4509   168.0433 </r>
       <r>   -12.4488    34.8388   172.4125 </r>
       <r>   -12.3528    19.9178   175.4147 </r>
       <r>   -12.2568    24.4772   178.1845 </r>
       <r>   -12.1608    15.8531   182.1558 </r>
       <r>   -12.0648    28.1747   185.1055 </r>
       <r>   -11.9688     0.0001   186.0000 </r>
       <r>   -11.8728    40.5504   189.8934 </r>
       <r>   -11.7767     0.0000   192.0000 </r>
       <r>   -11.6807     0.0000   192.0000 </r>
       <r>   -11.5847     0.1234   192.0118 </r>
       <r>   -11.4887    57.5970   198.0000 </r>
       <r>   -11.3927    62.3137   203.9830 </r>
       <r>   -11.2967     0.0000   204.0000 </r>
       <r>   -11.2007     0.0000   204.0000 </r>
       <r>   -11.1046    55.9698   209.3739 </r>
       <r>   -11.0086    53.7299   215.9283 </r>
       <r>   -10.9126     0.0000   216.0000 </r>
       <r>   -10.8166     0.0000   216.0000 </r>
       <r>   -10.7206     0.0000   216.0000 </r>
       <r>   -10.6246    31.0277   218.9791 </r>
       <r>   -10.5286    60.8875   226.4152 </r>
       <r>   -10.4325    14.5415   228.4299 </r>
       <r>   -10.3365    21.5870   230.9396 </r>
       <r>   -10.2405    29.0332   233.8880 </r>
       <r>   -10.1445     0.0001   234.0000 </r>
       <r>   -10.0485    39.6631   237.8082 </r>
       <r>    -9.9525    61.7221   244.4951 </r>
       <r>    -9.8564    36.1962   249.3097 </r>
       <r>    -9.7604    17.3482   252.0000 </r>
       <r>    -9.6644    56.6998   257.4440 </r>
       <r>    -9.5684     9.4914   258.9113 </r>
       <r>    -9.4724    27.2996   262.8890 </r>
       <r>    -9.3764    21.7471   265.2250 </r>
       <r>    -9.2804    36.1588   268.9055 </r>
       <r>    -9.1843    39.5191   273.0614 </r>
       <r>    -9.0883    58.9928   281.6643 </r>
       <r>    -8.9923    29.7605   285.1246 </r>
       <r>    -8.8963     0.0000   288.0000 </r>
       <r>    -8.8003     0.0000   288.0000 </r>
       <r>    -8.7043     0.0000   288.0000 </r>
       <r>    -8.6083    33.2784   291.1952 </r>
       <r>    -8.5122    59.1771   298.5497 </r>
       <r>    -8.4162    16.0171   300.8057 </r>
       <r>    -8.3202    38.8297   305.9998 </r>
       <r>    -8.2242     5.3410   306.5128 </r>
       <r>    -8.1282    60.2735   314.1227 </r>
       <r>    -8.0322    70.9893   324.0000 </r>
       <r>    -7.9362     0.0000   324.0000 </r>
       <r>    -7.8401     0.0000   324.0000 </r>
       <r>    -7.7441     0.0000   324.0000 </r>
       <r>    -7.6481     0.0000   324.0000 </r>
       <r>    -7.5521    62.3952   329.9909 </r>
       <r>    -7.4561     0.0260   330.0025 </r>
       <r>    -7.3601    53.6686   335.1555 </r>
       <r>    -7.2641     4.5025   336.0000 </r>
       <r>    -7.1680    34.7632   339.3378 </r>
       <r>    -7.0720    15.2556   342.0000 </r>
       <r>    -6.9760     0.0000   342.0000 </r>
       <r>    -6.8800     0.0000   342.0000 </r>
       <r>    -6.7840    16.0546   343.5415 </r>
       <r>    -6.6880    18.0244   345.7321 </r>
       <r>    -6.5919    26.2259   349.6545 </r>
       <r>    -6.4959    39.0976   353.6552 </r>
       <r>    -6.3999    59.1530   359.6796 </r>
       <r>    -6.3039     0.8633   360.0829 </r>
       <r>    -6.2079    50.2428   365.5589 </r>
       <r>    -6.1119     2.2215   366.2133 </r>
       <r>    -6.0159    42.7722   371.1742 </r>
       <r>    -5.9198    57.5678   377.5274 </r>
       <r>    -5.8238     0.0000   378.0000 </r>
       <r>    -5.7278     0.0000   378.0000 </r>
       <r>    -5.6318     0.0000   378.0000 </r>
       <r>    -5.5358     0.0000   378.0000 </r>
       <r>    -5.4398     0.0839   378.0081 </r>
       <r>    -5.3438    60.0079   384.0000 </r>
       <r>    -5.2477     0.0001   384.0000 </r>
       <r>    -5.1517    89.4488   392.5884 </r>
       <r>    -5.0557    18.7142   396.0000 </r>
       <r>    -4.9597     0.0000   396.0000 </r>
       <r>    -4.8637     0.0000   396.0000 </r>
       <r>    -4.7677     0.0000   396.0000 </r>
       <r>    -4.6717     0.0000   396.0000 </r>
       <r>    -4.5756    62.4899   401.9999 </r>
       <r>    -4.4796     0.0000   402.0000 </r>
       <r>    -4.3836     0.0000   402.0000 </r>
       <r>    -4.2876    25.9104   404.4878 </r>
       <r>    -4.1916    46.9573   411.9433 </r>
       <r>    -4.0956    14.2061   414.0000 </r>
       <r>    -3.9996     0.0000   414.0000 </r>
       <r>    -3.9035     0.0000   414.0000 </r>
       <r>    -3.8075     0.0000   414.0000 </r>
       <r>    -3.7115     0.0000   414.0000 </r>
       <r>    -3.6155     0.0000   414.0000 </r>
       <r>    -3.5195     0.0000   414.0000 </r>
       <r>    -3.4235     0.0000   414.0000 </r>
       <r>    -3.3274     0.0000   414.0000 </r>
       <r>    -3.2314     0.0000   414.0000 </r>
       <r>    -3.1354     0.0000   414.0000 </r>
       <r>    -3.0394     0.0000   414.0000 </r>
       <r>    -2.9434     0.0000   414.0000 </r>
       <r>    -2.8474     0.0000   414.0000 </r>
       <r>    -2.7514     0.0000   414.0000 </r>
       <r>    -2.6553     0.0000   414.0000 </r>
       <r>    -2.5593     0.0000   414.0000 </r>
       <r>    -2.4633     0.0000   414.0000 </r>
       <r>    -2.3673     0.0000   414.0000 </r>
       <r>    -2.2713    55.9249   419.3696 </r>
       <r>    -2.1753     0.0000   420.0000 </r>
       <r>    -2.0793     0.0000   420.0000 </r>
       <r>    -1.9832     0.0000   420.0000 </r>
       <r>    -1.8872     0.0000   420.0000 </r>
       <r>    -1.7912     0.0000   420.0000 </r>
       <r>    -1.6952     0.0000   420.0000 </r>
       <r>    -1.5992     0.0000   420.0000 </r>
       <r>    -1.5032    27.9348   422.6822 </r>
       <r>    -1.4072    34.4759   426.6105 </r>
       <r>    -1.3111    46.2605   431.6755 </r>
       <r>    -1.2151    31.7167   435.5802 </r>
       <r>    -1.1191    30.0594   438.8861 </r>
       <r>    -1.0231    41.7652   443.4774 </r>
       <r>    -0.9271    18.5535   445.7814 </r>
       <r>    -0.8311    49.7670   450.7788 </r>
       <r>    -0.7350    11.8077   452.6012 </r>
       <r>    -0.6390     5.7310   453.5171 </r>
       <r>    -0.5430    24.6466   456.0003 </r>
       <r>    -0.4470    20.6789   457.9858 </r>
       <r>    -0.3510    14.1921   460.1631 </r>
       <r>    -0.2550    25.4561   463.2115 </r>
       <r>    -0.1590    31.0688   466.9509 </r>
       <r>    -0.0629    25.0222   469.7027 </r>
       <r>     0.0331    16.2833   471.7638 </r>
       <r>     0.1291     8.0324   474.0056 </r>
       <r>     0.2251    14.1520   475.5619 </r>
       <r>     0.3211    21.6830   478.0159 </r>
       <r>     0.4171    18.2825   480.0226 </r>
       <r>     0.5131    36.9355   484.0134 </r>
       <r>     0.6092    52.6775   490.1245 </r>
       <r>     0.7052    36.6147   494.1158 </r>
       <r>     0.8012    41.1597   499.6191 </r>
       <r>     0.8972    29.5615   503.4057 </r>
       <r>     0.9932    37.5142   507.7050 </r>
       <r>     1.0892    37.4213   511.5598 </r>
       <r>     1.1852    52.3953   517.6656 </r>
       <r>     1.2813    58.5948   524.2962 </r>
       <r>     1.3773    55.3261   531.2142 </r>
       <r>     1.4733    47.1036   536.8918 </r>
       <r>     1.5693    55.2229   543.1368 </r>
       <r>     1.6653     5.2015   544.0000 </r>
       <r>     1.7613     0.0000   544.0000 </r>
       <r>     1.8573     0.0000   544.0000 </r>
       <r>     1.9534     0.0000   544.0000 </r>
       <r>     2.0494     0.0000   544.0000 </r>
       <r>     2.1454     0.0000   544.0000 </r>
       <r>     2.2414     0.0000   544.0000 </r>
       <r>     2.3374     0.0000   544.0000 </r>
       <r>     2.4334     0.0000   544.0000 </r>
       <r>     2.5295     0.0000   544.0000 </r>
       <r>     2.6255     0.0000   544.0000 </r>
       <r>     2.7215     0.0000   544.0000 </r>
       <r>     2.8175     0.0000   544.0000 </r>
       <r>     2.9135     0.0000   544.0000 </r>
      </set>
     </set>
    </array>
   </total>
  </dos>
 </calculation>
 <structure name="finalpos" >
  <crystal>
   <varray name="basis" >
    <v>      23.17551578       0.00166606       0.00000000 </v>
    <v>     -11.58626610      20.06320493       0.00000000 </v>
    <v>      -0.00000005      -0.00059521      20.00000000 </v>
   </varray>
   <i name="volume">   9299.88851836 </i>
   <varray name="rec_basis" >
    <v>       0.04314719       0.02491700       0.00000074 </v>
    <v>      -0.00000358       0.04984042       0.00000148 </v>
    <v>       0.00000000       0.00000000       0.05000000 </v>
   </varray>
  </crystal>
  <varray name="positions" >
   <v>       0.18971237       0.75900572       0.66012875 </v>
   <v>       0.13675817       0.68438083       0.62233599 </v>
   <v>       0.26735566       0.42884353       0.66065072 </v>
   <v>       0.18467556       0.45191449       0.60832479 </v>
   <v>       0.07967214       0.39149791       0.51711145 </v>
   <v>       0.07832359       0.68555377       0.51574896 </v>
   <v>       0.40019092       0.06819773       0.51602422 </v>
   <v>       0.33939140       0.94556256       0.51657210 </v>
   <v>       0.40198007       0.32980787       0.51638607 </v>
   <v>       0.34014917       0.39056787       0.51585648 </v>
   <v>       0.29537100       0.84108254       0.60767954 </v>
   <v>       0.34196928       0.45089315       0.62253396 </v>
   <v>       0.24544249       0.62217522       0.50051827 </v>
   <v>       0.40440612       0.77990971       0.49988384 </v>
   <v>       0.40338285       0.62115046       0.50019322 </v>
   <v>       0.43850528       0.18073455       0.66042636 </v>
   <v>       0.45994336       0.12740217       0.62296176 </v>
   <v>       0.46217186       0.28615113       0.60733009 </v>
   <v>       0.69562710       0.06975317       0.51730934 </v>
   <v>       0.63477877       0.94709045       0.51620371 </v>
   <v>       0.69582038       0.62538249       0.51625653 </v>
   <v>       0.63396731       0.68616244       0.51674653 </v>
   <v>       0.59557996       0.83519424       0.66110594 </v>
   <v>       0.57404921       0.88823858       0.62302510 </v>
   <v>       0.57247502       0.72960751       0.60824866 </v>
   <v>       0.84553646       0.25703957       0.66075116 </v>
   <v>       0.89846917       0.33157251       0.62262291 </v>
   <v>       0.74000050       0.17450424       0.60837487 </v>
   <v>       0.77012787       0.58740565       0.66033281 </v>
   <v>       0.69539105       0.56597153       0.62289286 </v>
   <v>       0.85174335       0.56359758       0.60733854 </v>
   <v>       0.95707432       0.32975220       0.51595795 </v>
   <v>       0.95572313       0.62380701       0.51633884 </v>
   <v>       0.63077133       0.23546289       0.50106358 </v>
   <v>       0.63263650       0.39492347       0.49993781 </v>
   <v>       0.79001554       0.39323692       0.49959233 </v>
   <v>       0.17296695       0.73269218       0.61710685 </v>
   <v>       0.29364942       0.43877048       0.61758946 </v>
   <v>       0.24365095       0.72510465       0.45540007 </v>
   <v>       0.24342904       0.51684858       0.45475521 </v>
   <v>       0.30095178       0.78209971       0.45401305 </v>
   <v>       0.30042816       0.51658510       0.45586854 </v>
   <v>       0.44818967       0.16383399       0.61758325 </v>
   <v>       0.51005640       0.78231547       0.45528064 </v>
   <v>       0.50983167       0.72502656       0.45380914 </v>
   <v>       0.52670331       0.23379669       0.45573415 </v>
   <v>       0.52724358       0.29122368       0.45406767 </v>
   <v>       0.58580333       0.85178016       0.61811356 </v>
   <v>       0.86204462       0.28333335       0.61770149 </v>
   <v>       0.74355112       0.57769123       0.61748830 </v>
   <v>       0.79118062       0.29018747       0.45584316 </v>
   <v>       0.73381788       0.23327792       0.45479361 </v>
   <v>       0.73521774       0.49946752       0.45547839 </v>
   <v>       0.79209727       0.49895251       0.45387148 </v>
   <v>       0.21688065       0.74883297       0.56494103 </v>
   <v>       0.20438241       0.70509140       0.51002096 </v>
   <v>       0.21747408       0.46821529       0.56470920 </v>
   <v>       0.27704447       0.46613642       0.56542656 </v>
   <v>       0.05332363       0.52555906       0.52135670 </v>
   <v>       0.08901990       0.48960918       0.51984790 </v>
   <v>       0.15910259       0.52581782       0.51350105 </v>
   <v>       0.15875043       0.63166279       0.51312996 </v>
   <v>       0.08857446       0.59723793       0.51939431 </v>
   <v>       0.05219667       0.41832122       0.51977002 </v>
   <v>       0.05127318       0.63126074       0.51893501 </v>
   <v>       0.27864778       0.80824081       0.56408174 </v>
   <v>       0.39440159       0.86626971       0.51289936 </v>
   <v>       0.39367050       0.97306921       0.51952369 </v>
   <v>       0.39396270       0.52499928       0.51311875 </v>
   <v>       0.39442697       0.41787430       0.51901710 </v>
   <v>       0.32057170       0.49728589       0.51035070 </v>
   <v>       0.20507347       0.49844268       0.51063611 </v>
   <v>       0.19170758       0.59516397       0.50828221 </v>
   <v>       0.32109871       0.82044317       0.50991419 </v>
   <v>       0.49980252       0.97204323       0.52155169 </v>
   <v>       0.42819713       0.93631900       0.51962475 </v>
   <v>       0.50053478       0.86664467       0.51307622 </v>
   <v>       0.53622511       0.93680988       0.51962985 </v>
   <v>       0.53518417       0.04328899       0.52174862 </v>
   <v>       0.49877320       0.07854510       0.51984215 </v>
   <v>       0.53455888       0.14875232       0.51366497 </v>
   <v>       0.42745370       0.04117795       0.51930665 </v>
   <v>       0.50003606       0.52565661       0.52126530 </v>
   <v>       0.53594449       0.59729477       0.51946711 </v>
   <v>       0.49976664       0.63115772       0.51281669 </v>
   <v>       0.42837804       0.48921943       0.51938993 </v>
   <v>       0.53591008       0.49028906       0.52129235 </v>
   <v>       0.53626910       0.38485452       0.51264734 </v>
   <v>       0.50002395       0.41865460       0.51934561 </v>
   <v>       0.42875476       0.38410711       0.51926007 </v>
   <v>       0.52847239       0.82113795       0.51019252 </v>
   <v>       0.47831929       0.26921022       0.56392413 </v>
   <v>       0.47585745       0.20739702       0.56515475 </v>
   <v>       0.50700275       0.19455957       0.51039276 </v>
   <v>       0.43111966       0.83364721       0.50780057 </v>
   <v>       0.43043916       0.59445387       0.50789923 </v>
   <v>       0.52730699       0.70452475       0.50994195 </v>
   <v>       0.50880456       0.31151829       0.50971041 </v>
   <v>       0.60753860       0.97413169       0.51946765 </v>
   <v>       0.60399588       0.18170159       0.50875352 </v>
   <v>       0.64065603       0.14904154       0.51375880 </v>
   <v>       0.60680300       0.07897451       0.52013925 </v>
   <v>       0.64133279       0.04222950       0.52000685 </v>
   <v>       0.60720810       0.63185721       0.51954510 </v>
   <v>       0.60757470       0.52675571       0.51959578 </v>
   <v>       0.64204568       0.49105102       0.51325673 </v>
   <v>       0.64153467       0.59809218       0.51935204 </v>
   <v>       0.55682135       0.74661330       0.56452623 </v>
   <v>       0.55900480       0.80831009       0.56552706 </v>
   <v>       0.75656623       0.20727130       0.56472467 </v>
   <v>       0.81824969       0.26680168       0.56542168 </v>
   <v>       0.83074343       0.31028346       0.51025968 </v>
   <v>       0.81870629       0.54745946       0.56389835 </v>
   <v>       0.75936003       0.54990793       0.56508432 </v>
   <v>       0.71544670       0.51879689       0.51023961 </v>
   <v>       0.98208269       0.48973567       0.52116796 </v>
   <v>       0.94677557       0.41805058       0.51934368 </v>
   <v>       0.87659829       0.38367696       0.51289808 </v>
   <v>       0.87641197       0.48956390       0.51246567 </v>
   <v>       0.94643441       0.52571127       0.51921425 </v>
   <v>       0.98410268       0.38404416       0.51920653 </v>
   <v>       0.98319504       0.59698856       0.51918914 </v>
   <v>       0.60560182       0.42161625       0.50781551 </v>
   <v>       0.71395006       0.19493125       0.51069347 </v>
   <v>       0.83064346       0.51713036       0.50962059 </v>
   <v>       0.84373274       0.42022797       0.50748485 </v>
  </varray>
 </structure>
</modeling>
