<?xml version="1.0" encoding="ISO-8859-1"?>
<modeling>
 <generator>
  <i name="program" type="string">vasp </i>
  <i name="version" type="string">5.4.4.18Apr17-6-g9f103f2a35  </i>
  <i name="subversion" type="string">(build Jun 07 2020 16:50:00) complex            parallel </i>
  <i name="platform" type="string">LinuxIFC </i>
  <i name="date" type="string">2023 02 26 </i>
  <i name="time" type="string">20:32:04 </i>
 </generator>
 <incar>
  <i type="string" name="SYSTEM">Simulation for cell shape cell volume r</i>
  <i type="int" name="ISTART">     1</i>
  <i type="string" name="PREC">high</i>
  <i type="string" name="ALGO">48</i>
  <i type="int" name="ICHARG">    11</i>
  <i type="int" name="NELM">   200</i>
  <i type="int" name="IBRION">    -1</i>
  <i name="EDIFF">      0.00001000</i>
  <i name="EDIFFG">     -0.01000000</i>
  <i type="int" name="NSW">     0</i>
  <i type="int" name="ISIF">     2</i>
  <i name="ENCUT">    500.00000000</i>
  <i name="POTIM">      0.30000000</i>
  <i type="string" name="LREAL">A</i>
  <i type="int" name="ISMEAR">     0</i>
  <i name="SIGMA">      0.01000000</i>
  <i type="int" name="NWRITE">     0</i>
  <i type="logical" name="LWAVE"> F  </i>
  <i type="logical" name="LCHARG"> F  </i>
  <v type="int" name="KPOINT_BSE">    -1     0     0     0</v>
  <i type="int" name="NELM">   200</i>
  <i type="string" name="GGA">PE</i>
 </incar>
 <structure name="primitive_cell" >
  <crystal>
   <varray name="basis" >
    <v>      29.02134208      -0.11757399       0.00000000 </v>
    <v>     -14.61287507      25.13088209       0.00000000 </v>
    <v>       0.00000000       0.00000000      20.00000000 </v>
   </varray>
   <i name="volume">  14552.27663552 </i>
   <varray name="rec_basis" >
    <v>       0.03453876       0.02008328       0.00000000 </v>
    <v>       0.00016159       0.03988564       0.00000000 </v>
    <v>       0.00000000       0.00000000       0.05000000 </v>
   </varray>
  </crystal>
  <varray name="positions" >
   <v>       0.36449903      -0.27742772       0.48723609 </v>
   <v>       0.39386242      -0.22201744       0.48656411 </v>
   <v>       0.38937870      -0.30791122       0.48578060 </v>
   <v>       0.30822114      -0.30265918       0.48841523 </v>
   <v>       0.37349406      -0.20392058      -0.49853466 </v>
   <v>       0.28963298      -0.27815787       0.48960650 </v>
   <v>       0.43277334      -0.28904096       0.48501878 </v>
   <v>       0.27733493      -0.35830745       0.48724349 </v>
   <v>       0.35798555      -0.36414599       0.48472540 </v>
   <v>       0.45056477      -0.19251616      -0.49754535 </v>
   <v>       0.45911565      -0.20503956      -0.44897460 </v>
   <v>       0.30223941      -0.38930928       0.48566913 </v>
   <v>       0.47282544      -0.20040867       0.46382573 </v>
   <v>       0.38395137      -0.39329090       0.48183870 </v>
   <v>       0.22185134      -0.38450977       0.48661857 </v>
   <v>       0.46918446      -0.13391297      -0.49618006 </v>
   <v>       0.27743180      -0.43264902       0.48497608 </v>
   <v>       0.42292646      -0.37286209       0.49580728 </v>
   <v>       0.20108579      -0.32605312       0.47013247 </v>
   <v>       0.20575886      -0.33879836      -0.44391371 </v>
   <v>       0.19286939      -0.35794522      -0.49367172 </v>
   <v>       0.45182989      -0.13023723      -0.39125645 </v>
   <v>       0.20336038      -0.42372360       0.49904722 </v>
   <v>       0.46568595      -0.10923076      -0.43888547 </v>
   <v>       0.49147166      -0.12145503       0.39889668 </v>
   <v>       0.48813722      -0.10270599       0.44475522 </v>
   <v>       0.35656030      -0.44986992       0.49789345 </v>
   <v>       0.33614990      -0.45837441      -0.45297538 </v>
   <v>       0.32549152      -0.47223420       0.45996380 </v>
   <v>       0.48012249      -0.05507658      -0.44189783 </v>
   <v>      -0.49740706      -0.05165009       0.44007616 </v>
   <v>       0.13393553      -0.39799936      -0.49306309 </v>
   <v>       0.39644894      -0.46843815       0.49776571 </v>
   <v>       0.49825955      -0.02781022       0.49601352 </v>
   <v>       0.12121803      -0.38193008       0.40464056 </v>
   <v>       0.13040036      -0.42533362      -0.39101951 </v>
   <v>       0.41600369      -0.45538443      -0.39646321 </v>
   <v>       0.10913426      -0.42950051      -0.43775597 </v>
   <v>       0.10236146      -0.40654897       0.44896564 </v>
   <v>       0.47502374      -0.03211608      -0.38351046 </v>
   <v>       0.42364133      -0.46746578      -0.44499690 </v>
   <v>       0.38807437      -0.48641597       0.39155662 </v>
   <v>       0.40942676      -0.48503442       0.43739658 </v>
   <v>      -0.48849311       0.02712410       0.49602254 </v>
   <v>       0.48692100       0.01705253      -0.38349144 </v>
   <v>       0.05081903      -0.44240570       0.44359925 </v>
   <v>       0.46284613      -0.48240726      -0.44918448 </v>
   <v>       0.05444875      -0.46861563      -0.44164918 </v>
   <v>       0.44581997      -0.49952817       0.43150569 </v>
   <v>      -0.49508638       0.04699574      -0.44183593 </v>
   <v>      -0.47135589       0.05737974       0.43999431 </v>
   <v>       0.47275065      -0.49806169       0.48752536 </v>
   <v>       0.02677990      -0.47365175       0.49755912 </v>
   <v>       0.48952919      -0.48041969      -0.39061050 </v>
   <v>       0.03133604       0.49982544      -0.38546979 </v>
   <v>      -0.48269920       0.10052611      -0.43853795 </v>
   <v>      -0.46054098       0.10737578       0.44499117 </v>
   <v>      -0.48638048       0.48768510       0.48641873 </v>
   <v>      -0.47388343      -0.49315449      -0.39154584 </v>
   <v>      -0.02881161       0.48540851       0.49660250 </v>
   <v>      -0.01841775       0.46316739      -0.38634928 </v>
   <v>      -0.48730305       0.11603002      -0.39083506 </v>
   <v>      -0.46522941       0.13152107      -0.49569371 </v>
   <v>      -0.46130401       0.49108013      -0.45110606 </v>
   <v>      -0.44718161       0.13111640       0.39897805 </v>
   <v>      -0.47287959       0.47233408       0.42930988 </v>
   <v>      -0.04883505       0.45542716      -0.44337890 </v>
   <v>      -0.05953007       0.47604322       0.44157865 </v>
   <v>      -0.42101030       0.47761013      -0.44876552 </v>
   <v>      -0.43462022       0.46021113       0.43355733 </v>
   <v>      -0.44919628       0.18950987      -0.49565434 </v>
   <v>      -0.10304705       0.41495697      -0.44091289 </v>
   <v>      -0.11016354       0.43726376       0.44564381 </v>
   <v>      -0.37065621       0.20449268      -0.49095210 </v>
   <v>      -0.47252574       0.19650397      -0.45764050 </v>
   <v>      -0.45888312       0.20027482       0.45523696 </v>
   <v>      -0.40188122       0.47984889      -0.40090425 </v>
   <v>      -0.40708329       0.46196252       0.49298145 </v>
   <v>      -0.42401631       0.44818550       0.38674903 </v>
   <v>      -0.39254426       0.22191145      -0.48054462 </v>
   <v>      -0.11859298       0.39221149      -0.39473003 </v>
   <v>      -0.13455606       0.40531694      -0.49694382 </v>
   <v>      -0.13421527       0.42986825       0.40033741 </v>
   <v>      -0.36596640       0.44498502       0.49233873 </v>
   <v>      -0.36521024       0.27718569      -0.48501202 </v>
   <v>      -0.33450277       0.46873525      -0.47080898 </v>
   <v>      -0.34634997       0.45329815       0.44265354 </v>
   <v>      -0.19306989       0.36390047      -0.49759548 </v>
   <v>      -0.28842798       0.28189790      -0.48239259 </v>
   <v>      -0.20705251       0.42785146      -0.49658929 </v>
   <v>      -0.43025155       0.36656939       0.49673616 </v>
   <v>      -0.43584702       0.28486802      -0.48794846 </v>
   <v>      -0.20400185       0.34309798       0.45342116 </v>
   <v>      -0.20111941       0.33348135      -0.45925890 </v>
   <v>      -0.30879268       0.30469662      -0.48485485 </v>
   <v>      -0.39120666       0.38884317      -0.49011136 </v>
   <v>      -0.39232543       0.30550437      -0.48797778 </v>
   <v>      -0.22455362       0.38886871      -0.48338647 </v>
   <v>      -0.36308485       0.36182309      -0.48981754 </v>
   <v>      -0.28002235       0.36045521      -0.48645341 </v>
   <v>      -0.28406890       0.43266365      -0.49125760 </v>
   <v>      -0.30721223       0.38922990      -0.48963456 </v>
  </varray>
 </structure>
 <varray name="primitive_index" >
  <v type="int" >        1 </v>
  <v type="int" >       85 </v>
  <v type="int" >        6 </v>
  <v type="int" >        2 </v>
  <v type="int" >       52 </v>
  <v type="int" >       51 </v>
  <v type="int" >       50 </v>
  <v type="int" >        3 </v>
  <v type="int" >        5 </v>
  <v type="int" >       19 </v>
  <v type="int" >       64 </v>
  <v type="int" >        4 </v>
  <v type="int" >       63 </v>
  <v type="int" >       86 </v>
  <v type="int" >       87 </v>
  <v type="int" >       13 </v>
  <v type="int" >       49 </v>
  <v type="int" >       53 </v>
  <v type="int" >       71 </v>
  <v type="int" >       72 </v>
  <v type="int" >       33 </v>
  <v type="int" >       61 </v>
  <v type="int" >       54 </v>
  <v type="int" >       16 </v>
  <v type="int" >       73 </v>
  <v type="int" >       34 </v>
  <v type="int" >       26 </v>
  <v type="int" >       68 </v>
  <v type="int" >       67 </v>
  <v type="int" >       15 </v>
  <v type="int" >       97 </v>
  <v type="int" >       27 </v>
  <v type="int" >       20 </v>
  <v type="int" >       14 </v>
  <v type="int" >       81 </v>
  <v type="int" >       69 </v>
  <v type="int" >       65 </v>
  <v type="int" >       30 </v>
  <v type="int" >       44 </v>
  <v type="int" >       92 </v>
  <v type="int" >       23 </v>
  <v type="int" >       77 </v>
  <v type="int" >       39 </v>
  <v type="int" >       35 </v>
  <v type="int" >       91 </v>
  <v type="int" >      101 </v>
  <v type="int" >       22 </v>
  <v type="int" >       29 </v>
  <v type="int" >       99 </v>
  <v type="int" >       18 </v>
  <v type="int" >       98 </v>
  <v type="int" >       21 </v>
  <v type="int" >       28 </v>
  <v type="int" >       94 </v>
  <v type="int" >       96 </v>
  <v type="int" >       17 </v>
  <v type="int" >       37 </v>
  <v type="int" >       40 </v>
  <v type="int" >       93 </v>
  <v type="int" >       45 </v>
  <v type="int" >       95 </v>
  <v type="int" >       62 </v>
  <v type="int" >       36 </v>
  <v type="int" >       25 </v>
  <v type="int" >       74 </v>
  <v type="int" >      100 </v>
  <v type="int" >       32 </v>
  <v type="int" >      102 </v>
  <v type="int" >       24 </v>
  <v type="int" >       42 </v>
  <v type="int" >       38 </v>
  <v type="int" >       31 </v>
  <v type="int" >       47 </v>
  <v type="int" >       58 </v>
  <v type="int" >       76 </v>
  <v type="int" >       75 </v>
  <v type="int" >       66 </v>
  <v type="int" >       41 </v>
  <v type="int" >       78 </v>
  <v type="int" >       88 </v>
  <v type="int" >       70 </v>
  <v type="int" >       46 </v>
  <v type="int" >       82 </v>
  <v type="int" >       43 </v>
  <v type="int" >        7 </v>
  <v type="int" >       80 </v>
  <v type="int" >       79 </v>
  <v type="int" >       48 </v>
  <v type="int" >       57 </v>
  <v type="int" >       60 </v>
  <v type="int" >       59 </v>
  <v type="int" >       56 </v>
  <v type="int" >       83 </v>
  <v type="int" >       84 </v>
  <v type="int" >        8 </v>
  <v type="int" >       89 </v>
  <v type="int" >       12 </v>
  <v type="int" >       90 </v>
  <v type="int" >       11 </v>
  <v type="int" >        9 </v>
  <v type="int" >       55 </v>
  <v type="int" >       10 </v>
 </varray>
 <kpoints>
  <generation param="listgenerated">
   <i name="divisions" type="int">      20 </i>
   <v>       0.00000000       0.00000000       0.00000000 </v>
   <v>       0.50000000      -0.50000000       0.00000000 </v>
   <v>       0.66745830      -0.33139419       0.00000000 </v>
   <v>       0.50000000       0.00000000       0.00000000 </v>
   <v>       0.33254170       0.33139419       0.00000000 </v>
   <v>       0.00000000       0.50000000       0.00000000 </v>
   <v>       0.00000000       0.00000000       0.00000000 </v>
  </generation>
  <varray name="kpointlist" >
   <v>       0.00000000       0.00000000       0.00000000 </v>
   <v>       0.02631579      -0.02631579       0.00000000 </v>
   <v>       0.05263158      -0.05263158       0.00000000 </v>
   <v>       0.07894737      -0.07894737       0.00000000 </v>
   <v>       0.10526316      -0.10526316       0.00000000 </v>
   <v>       0.13157895      -0.13157895       0.00000000 </v>
   <v>       0.15789474      -0.15789474       0.00000000 </v>
   <v>       0.18421053      -0.18421053       0.00000000 </v>
   <v>       0.21052632      -0.21052632       0.00000000 </v>
   <v>       0.23684211      -0.23684211       0.00000000 </v>
   <v>       0.26315789      -0.26315789       0.00000000 </v>
   <v>       0.28947368      -0.28947368       0.00000000 </v>
   <v>       0.31578947      -0.31578947       0.00000000 </v>
   <v>       0.34210526      -0.34210526       0.00000000 </v>
   <v>       0.36842105      -0.36842105       0.00000000 </v>
   <v>       0.39473684      -0.39473684       0.00000000 </v>
   <v>       0.42105263      -0.42105263       0.00000000 </v>
   <v>       0.44736842      -0.44736842       0.00000000 </v>
   <v>       0.47368421      -0.47368421       0.00000000 </v>
   <v>       0.50000000      -0.50000000       0.00000000 </v>
   <v>       0.50000000      -0.50000000       0.00000000 </v>
   <v>       0.50881359      -0.49112601       0.00000000 </v>
   <v>       0.51762719      -0.48225202       0.00000000 </v>
   <v>       0.52644078      -0.47337803       0.00000000 </v>
   <v>       0.53525438      -0.46450404       0.00000000 </v>
   <v>       0.54406797      -0.45563005       0.00000000 </v>
   <v>       0.55288157      -0.44675606       0.00000000 </v>
   <v>       0.56169516      -0.43788207       0.00000000 </v>
   <v>       0.57050876      -0.42900808       0.00000000 </v>
   <v>       0.57932235      -0.42013409       0.00000000 </v>
   <v>       0.58813595      -0.41126010       0.00000000 </v>
   <v>       0.59694954      -0.40238611       0.00000000 </v>
   <v>       0.60576314      -0.39351212       0.00000000 </v>
   <v>       0.61457673      -0.38463813       0.00000000 </v>
   <v>       0.62339033      -0.37576414       0.00000000 </v>
   <v>       0.63220392      -0.36689015       0.00000000 </v>
   <v>       0.64101752      -0.35801616       0.00000000 </v>
   <v>       0.64983111      -0.34914217       0.00000000 </v>
   <v>       0.65864471      -0.34026818       0.00000000 </v>
   <v>       0.66745830      -0.33139419       0.00000000 </v>
   <v>       0.66745830      -0.33139419       0.00000000 </v>
   <v>       0.65864471      -0.31395239       0.00000000 </v>
   <v>       0.64983111      -0.29651059       0.00000000 </v>
   <v>       0.64101752      -0.27906879       0.00000000 </v>
   <v>       0.63220392      -0.26162699       0.00000000 </v>
   <v>       0.62339033      -0.24418519       0.00000000 </v>
   <v>       0.61457673      -0.22674339       0.00000000 </v>
   <v>       0.60576314      -0.20930159       0.00000000 </v>
   <v>       0.59694954      -0.19185979       0.00000000 </v>
   <v>       0.58813595      -0.17441800       0.00000000 </v>
   <v>       0.57932235      -0.15697620       0.00000000 </v>
   <v>       0.57050876      -0.13953440       0.00000000 </v>
   <v>       0.56169516      -0.12209260       0.00000000 </v>
   <v>       0.55288157      -0.10465080       0.00000000 </v>
   <v>       0.54406797      -0.08720900       0.00000000 </v>
   <v>       0.53525438      -0.06976720       0.00000000 </v>
   <v>       0.52644078      -0.05232540       0.00000000 </v>
   <v>       0.51762719      -0.03488360       0.00000000 </v>
   <v>       0.50881359      -0.01744180       0.00000000 </v>
   <v>       0.50000000      -0.00000000       0.00000000 </v>
   <v>       0.50000000       0.00000000       0.00000000 </v>
   <v>       0.49118641       0.01744180       0.00000000 </v>
   <v>       0.48237281       0.03488360       0.00000000 </v>
   <v>       0.47355922       0.05232540       0.00000000 </v>
   <v>       0.46474562       0.06976720       0.00000000 </v>
   <v>       0.45593203       0.08720900       0.00000000 </v>
   <v>       0.44711843       0.10465080       0.00000000 </v>
   <v>       0.43830484       0.12209260       0.00000000 </v>
   <v>       0.42949124       0.13953440       0.00000000 </v>
   <v>       0.42067765       0.15697620       0.00000000 </v>
   <v>       0.41186405       0.17441800       0.00000000 </v>
   <v>       0.40305046       0.19185979       0.00000000 </v>
   <v>       0.39423686       0.20930159       0.00000000 </v>
   <v>       0.38542327       0.22674339       0.00000000 </v>
   <v>       0.37660967       0.24418519       0.00000000 </v>
   <v>       0.36779608       0.26162699       0.00000000 </v>
   <v>       0.35898248       0.27906879       0.00000000 </v>
   <v>       0.35016889       0.29651059       0.00000000 </v>
   <v>       0.34135529       0.31395239       0.00000000 </v>
   <v>       0.33254170       0.33139419       0.00000000 </v>
   <v>       0.33254170       0.33139419       0.00000000 </v>
   <v>       0.31503950       0.34026818       0.00000000 </v>
   <v>       0.29753731       0.34914217       0.00000000 </v>
   <v>       0.28003511       0.35801616       0.00000000 </v>
   <v>       0.26253292       0.36689015       0.00000000 </v>
   <v>       0.24503072       0.37576414       0.00000000 </v>
   <v>       0.22752853       0.38463813       0.00000000 </v>
   <v>       0.21002633       0.39351212       0.00000000 </v>
   <v>       0.19252414       0.40238611       0.00000000 </v>
   <v>       0.17502194       0.41126010       0.00000000 </v>
   <v>       0.15751975       0.42013409       0.00000000 </v>
   <v>       0.14001756       0.42900808       0.00000000 </v>
   <v>       0.12251536       0.43788207       0.00000000 </v>
   <v>       0.10501317       0.44675606       0.00000000 </v>
   <v>       0.08751097       0.45563005       0.00000000 </v>
   <v>       0.07000878       0.46450404       0.00000000 </v>
   <v>       0.05250658       0.47337803       0.00000000 </v>
   <v>       0.03500439       0.48225202       0.00000000 </v>
   <v>       0.01750219       0.49112601       0.00000000 </v>
   <v>       0.00000000       0.50000000       0.00000000 </v>
   <v>       0.00000000       0.50000000       0.00000000 </v>
   <v>       0.00000000       0.47368421       0.00000000 </v>
   <v>       0.00000000       0.44736842       0.00000000 </v>
   <v>       0.00000000       0.42105263       0.00000000 </v>
   <v>       0.00000000       0.39473684       0.00000000 </v>
   <v>       0.00000000       0.36842105       0.00000000 </v>
   <v>       0.00000000       0.34210526       0.00000000 </v>
   <v>       0.00000000       0.31578947       0.00000000 </v>
   <v>       0.00000000       0.28947368       0.00000000 </v>
   <v>       0.00000000       0.26315789       0.00000000 </v>
   <v>       0.00000000       0.23684211       0.00000000 </v>
   <v>       0.00000000       0.21052632       0.00000000 </v>
   <v>       0.00000000       0.18421053       0.00000000 </v>
   <v>       0.00000000       0.15789474       0.00000000 </v>
   <v>       0.00000000       0.13157895       0.00000000 </v>
   <v>       0.00000000       0.10526316       0.00000000 </v>
   <v>       0.00000000       0.07894737       0.00000000 </v>
   <v>       0.00000000       0.05263158       0.00000000 </v>
   <v>       0.00000000       0.02631579       0.00000000 </v>
   <v>       0.00000000       0.00000000       0.00000000 </v>
  </varray>
  <varray name="weights" >
   <v>       0.00833333 </v>
   <v>       0.00833333 </v>
   <v>       0.00833333 </v>
   <v>       0.00833333 </v>
   <v>       0.00833333 </v>
   <v>       0.00833333 </v>
   <v>       0.00833333 </v>
   <v>       0.00833333 </v>
   <v>       0.00833333 </v>
   <v>       0.00833333 </v>
   <v>       0.00833333 </v>
   <v>       0.00833333 </v>
   <v>       0.00833333 </v>
   <v>       0.00833333 </v>
   <v>       0.00833333 </v>
   <v>       0.00833333 </v>
   <v>       0.00833333 </v>
   <v>       0.00833333 </v>
   <v>       0.00833333 </v>
   <v>       0.00833333 </v>
   <v>       0.00833333 </v>
   <v>       0.00833333 </v>
   <v>       0.00833333 </v>
   <v>       0.00833333 </v>
   <v>       0.00833333 </v>
   <v>       0.00833333 </v>
   <v>       0.00833333 </v>
   <v>       0.00833333 </v>
   <v>       0.00833333 </v>
   <v>       0.00833333 </v>
   <v>       0.00833333 </v>
   <v>       0.00833333 </v>
   <v>       0.00833333 </v>
   <v>       0.00833333 </v>
   <v>       0.00833333 </v>
   <v>       0.00833333 </v>
   <v>       0.00833333 </v>
   <v>       0.00833333 </v>
   <v>       0.00833333 </v>
   <v>       0.00833333 </v>
   <v>       0.00833333 </v>
   <v>       0.00833333 </v>
   <v>       0.00833333 </v>
   <v>       0.00833333 </v>
   <v>       0.00833333 </v>
   <v>       0.00833333 </v>
   <v>       0.00833333 </v>
   <v>       0.00833333 </v>
   <v>       0.00833333 </v>
   <v>       0.00833333 </v>
   <v>       0.00833333 </v>
   <v>       0.00833333 </v>
   <v>       0.00833333 </v>
   <v>       0.00833333 </v>
   <v>       0.00833333 </v>
   <v>       0.00833333 </v>
   <v>       0.00833333 </v>
   <v>       0.00833333 </v>
   <v>       0.00833333 </v>
   <v>       0.00833333 </v>
   <v>       0.00833333 </v>
   <v>       0.00833333 </v>
   <v>       0.00833333 </v>
   <v>       0.00833333 </v>
   <v>       0.00833333 </v>
   <v>       0.00833333 </v>
   <v>       0.00833333 </v>
   <v>       0.00833333 </v>
   <v>       0.00833333 </v>
   <v>       0.00833333 </v>
   <v>       0.00833333 </v>
   <v>       0.00833333 </v>
   <v>       0.00833333 </v>
   <v>       0.00833333 </v>
   <v>       0.00833333 </v>
   <v>       0.00833333 </v>
   <v>       0.00833333 </v>
   <v>       0.00833333 </v>
   <v>       0.00833333 </v>
   <v>       0.00833333 </v>
   <v>       0.00833333 </v>
   <v>       0.00833333 </v>
   <v>       0.00833333 </v>
   <v>       0.00833333 </v>
   <v>       0.00833333 </v>
   <v>       0.00833333 </v>
   <v>       0.00833333 </v>
   <v>       0.00833333 </v>
   <v>       0.00833333 </v>
   <v>       0.00833333 </v>
   <v>       0.00833333 </v>
   <v>       0.00833333 </v>
   <v>       0.00833333 </v>
   <v>       0.00833333 </v>
   <v>       0.00833333 </v>
   <v>       0.00833333 </v>
   <v>       0.00833333 </v>
   <v>       0.00833333 </v>
   <v>       0.00833333 </v>
   <v>       0.00833333 </v>
   <v>       0.00833333 </v>
   <v>       0.00833333 </v>
   <v>       0.00833333 </v>
   <v>       0.00833333 </v>
   <v>       0.00833333 </v>
   <v>       0.00833333 </v>
   <v>       0.00833333 </v>
   <v>       0.00833333 </v>
   <v>       0.00833333 </v>
   <v>       0.00833333 </v>
   <v>       0.00833333 </v>
   <v>       0.00833333 </v>
   <v>       0.00833333 </v>
   <v>       0.00833333 </v>
   <v>       0.00833333 </v>
   <v>       0.00833333 </v>
   <v>       0.00833333 </v>
   <v>       0.00833333 </v>
   <v>       0.00833333 </v>
   <v>       0.00833333 </v>
  </varray>
 </kpoints>
 <parameters>
  <separator name="general" >
   <i type="string" name="SYSTEM">Simulation for cell shape cell volume r</i>
   <i type="logical" name="LCOMPAT"> F  </i>
  </separator>
  <separator name="electronic" >
   <i type="string" name="PREC">high</i>
   <i name="ENMAX">    500.00000000</i>
   <i name="ENAUG">    644.87300000</i>
   <i name="EDIFF">      0.00001000</i>
   <i type="int" name="IALGO">    38</i>
   <i type="int" name="IWAVPR">    10</i>
   <i type="int" name="NBANDS">   224</i>
   <i name="NELECT">    318.00000000</i>
   <i type="int" name="TURBO">     0</i>
   <i type="int" name="IRESTART">     0</i>
   <i type="int" name="NREBOOT">     0</i>
   <i type="int" name="NMIN">     0</i>
   <i name="EREF">      0.00000000</i>
   <separator name="electronic smearing" >
    <i type="int" name="ISMEAR">     0</i>
    <i name="SIGMA">      0.01000000</i>
    <i name="KSPACING">      0.50000000</i>
    <i type="logical" name="KGAMMA"> T  </i>
   </separator>
   <separator name="electronic projectors" >
    <i type="logical" name="LREAL"> T  </i>
    <v name="ROPT">     -0.00040000     -0.00040000     -0.00040000</v>
    <i type="int" name="LMAXPAW">  -100</i>
    <i type="int" name="LMAXMIX">     2</i>
    <i type="logical" name="NLSPLINE"> F  </i>
   </separator>
   <separator name="electronic startup" >
    <i type="int" name="ISTART">     1</i>
    <i type="int" name="ICHARG">    11</i>
    <i type="int" name="INIWAV">     1</i>
   </separator>
   <separator name="electronic spin" >
    <i type="int" name="ISPIN">     1</i>
    <i type="logical" name="LNONCOLLINEAR"> F  </i>
    <v name="MAGMOM">      1.00000000      1.00000000      1.00000000      1.00000000      1.00000000      1.00000000      1.00000000      1.00000000      1.00000000      1.00000000      1.00000000      1.00000000      1.00000000      1.00000000      1.00000000      1.00000000      1.00000000      1.00000000      1.00000000      1.00000000
      1.00000000      1.00000000      1.00000000      1.00000000      1.00000000      1.00000000      1.00000000      1.00000000      1.00000000      1.00000000      1.00000000      1.00000000      1.00000000      1.00000000      1.00000000      1.00000000      1.00000000      1.00000000      1.00000000      1.00000000
      1.00000000      1.00000000      1.00000000      1.00000000      1.00000000      1.00000000      1.00000000      1.00000000      1.00000000      1.00000000      1.00000000      1.00000000      1.00000000      1.00000000      1.00000000      1.00000000      1.00000000      1.00000000      1.00000000      1.00000000
      1.00000000      1.00000000      1.00000000      1.00000000      1.00000000      1.00000000      1.00000000      1.00000000      1.00000000      1.00000000      1.00000000      1.00000000      1.00000000      1.00000000      1.00000000      1.00000000      1.00000000      1.00000000      1.00000000      1.00000000
      1.00000000      1.00000000      1.00000000      1.00000000      1.00000000      1.00000000      1.00000000      1.00000000      1.00000000      1.00000000      1.00000000      1.00000000      1.00000000      1.00000000      1.00000000      1.00000000      1.00000000      1.00000000      1.00000000      1.00000000
      1.00000000      1.00000000</v>
    <i name="NUPDOWN">     -1.00000000</i>
    <i type="logical" name="LSORBIT"> F  </i>
    <v name="SAXIS">      0.00000000      0.00000000      1.00000000</v>
    <i type="logical" name="LSPIRAL"> F  </i>
    <v name="QSPIRAL">      0.00000000      0.00000000      0.00000000</v>
    <i type="logical" name="LZEROZ"> F  </i>
   </separator>
   <separator name="electronic exchange-correlation" >
    <i type="logical" name="LASPH"> F  </i>
    <i type="logical" name="LMETAGGA"> F  </i>
   </separator>
   <separator name="electronic convergence" >
    <i type="int" name="NELM">   200</i>
    <i type="int" name="NELMDL">     0</i>
    <i type="int" name="NELMIN">     2</i>
    <i name="ENINI">    500.00000000</i>
    <separator name="electronic convergence detail" >
     <i type="logical" name="LDIAG"> T  </i>
     <i type="logical" name="LSUBROT"> F  </i>
     <i name="WEIMIN">      0.00000000</i>
     <i name="EBREAK">      0.00000001</i>
     <i name="DEPER">      0.30000000</i>
     <i type="int" name="NRMM">     4</i>
     <i name="TIME">      0.40000000</i>
    </separator>
   </separator>
   <separator name="electronic mixer" >
    <i name="AMIX">      0.40000000</i>
    <i name="BMIX">      1.00000000</i>
    <i name="AMIN">      0.10000000</i>
    <i name="AMIX_MAG">      1.60000000</i>
    <i name="BMIX_MAG">      1.00000000</i>
    <separator name="electronic mixer details" >
     <i type="int" name="IMIX">     4</i>
     <i type="logical" name="MIXFIRST"> F  </i>
     <i type="int" name="MAXMIX">   -45</i>
     <i name="WC">    100.00000000</i>
     <i type="int" name="INIMIX">     1</i>
     <i type="int" name="MIXPRE">     1</i>
     <i type="int" name="MREMOVE">     5</i>
    </separator>
   </separator>
   <separator name="electronic dipolcorrection" >
    <i type="logical" name="LDIPOL"> F  </i>
    <i type="logical" name="LMONO"> F  </i>
    <i type="int" name="IDIPOL">     0</i>
    <i name="EPSILON">      1.00000000</i>
    <v name="DIPOL">   -100.00000000   -100.00000000   -100.00000000</v>
    <i name="EFIELD">      0.00000000</i>
   </separator>
  </separator>
  <separator name="grids" >
   <i type="int" name="NGX">   216</i>
   <i type="int" name="NGY">   216</i>
   <i type="int" name="NGZ">   150</i>
   <i type="int" name="NGXF">   320</i>
   <i type="int" name="NGYF">   324</i>
   <i type="int" name="NGZF">   224</i>
   <i type="logical" name="ADDGRID"> F  </i>
  </separator>
  <separator name="ionic" >
   <i type="int" name="NSW">     0</i>
   <i type="int" name="IBRION">    -1</i>
   <i type="int" name="MDALGO">     0</i>
   <i type="int" name="ISIF">     2</i>
   <i name="PSTRESS">      0.00000000</i>
   <i name="EDIFFG">     -0.01000000</i>
   <i type="int" name="NFREE">     0</i>
   <i name="POTIM">      0.30000000</i>
   <i name="SMASS">     -3.00000000</i>
   <i name="SCALEE">      1.00000000</i>
  </separator>
  <separator name="ionic md" >
   <i name="TEBEG">      0.00010000</i>
   <i name="TEEND">      0.00010000</i>
   <i type="int" name="NBLOCK">     1</i>
   <i type="int" name="KBLOCK">     1</i>
   <i type="int" name="NPACO">   256</i>
   <i name="APACO">     16.00000000</i>
  </separator>
  <separator name="symmetry" >
   <i type="int" name="ISYM">     2</i>
   <i name="SYMPREC">      0.00001000</i>
  </separator>
  <separator name="dos" >
   <i type="int" name="LORBIT">     0</i>
   <v name="RWIGS">     -1.00000000     -1.00000000     -1.00000000</v>
   <i type="int" name="NEDOS">   301</i>
   <i name="EMIN">     10.00000000</i>
   <i name="EMAX">    -10.00000000</i>
   <i name="EFERMI">      0.00000000</i>
  </separator>
  <separator name="writing" >
   <i type="int" name="NWRITE">     0</i>
   <i type="logical" name="LWAVE"> F  </i>
   <i type="logical" name="LDOWNSAMPLE"> F  </i>
   <i type="logical" name="LCHARG"> F  </i>
   <i type="logical" name="LPARD"> F  </i>
   <i type="logical" name="LVTOT"> F  </i>
   <i type="logical" name="LVHAR"> F  </i>
   <i type="logical" name="LELF"> F  </i>
   <i type="logical" name="LOPTICS"> F  </i>
   <v name="STM">      0.00000000      0.00000000      0.00000000      0.00000000      0.00000000      0.00000000      0.00000000</v>
  </separator>
  <separator name="performance" >
   <i type="int" name="NPAR">    16</i>
   <i type="int" name="NSIM">     4</i>
   <i type="int" name="NBLK">    -1</i>
   <i type="logical" name="LPLANE"> T  </i>
   <i type="logical" name="LSCALAPACK"> T  </i>
   <i type="logical" name="LSCAAWARE"> F  </i>
   <i type="logical" name="LSCALU"> F  </i>
   <i type="logical" name="LASYNC"> F  </i>
   <i type="logical" name="LORBITALREAL"> F  </i>
  </separator>
  <separator name="miscellaneous" >
   <i type="int" name="IDIOT">     3</i>
   <i type="int" name="ISPECIAL">     0</i>
   <i type="logical" name="LMUSIC"> F  </i>
   <v name="POMASS">     12.01100000      1.00000000     14.00100000</v>
   <v name="DARWINR">      0.00000000      0.00000000      0.00000000</v>
   <v name="DARWINV">      1.00000000      1.00000000      1.00000000</v>
   <i type="logical" name="LCORR"> T  </i>
  </separator>
  <i type="logical" name="GGA_COMPAT"> T  </i>
  <i type="logical" name="LBERRY"> F  </i>
  <i type="int" name="ICORELEVEL">     0</i>
  <i type="logical" name="LDAU"> F  </i>
  <i type="int" name="I_CONSTRAINED_M">     0</i>
  <separator name="electronic exchange-correlation" >
   <i type="string" name="GGA">PE</i>
   <i type="int" name="VOSKOWN">     0</i>
   <i type="logical" name="LHFCALC"> F  </i>
   <i type="string" name="PRECFOCK"></i>
   <i type="logical" name="LSYMGRAD"> F  </i>
   <i type="logical" name="LHFONE"> F  </i>
   <i type="logical" name="LRHFCALC"> F  </i>
   <i type="logical" name="LTHOMAS"> F  </i>
   <i type="logical" name="LMODELHF"> F  </i>
   <i name="ENCUT4O">     -1.00000000</i>
   <i type="int" name="EXXOEP">     0</i>
   <i type="int" name="FOURORBIT">     0</i>
   <i name="AEXX">      0.00000000</i>
   <i name="HFALPHA">      0.00000000</i>
   <i name="MCALPHA">      0.00000000</i>
   <i name="ALDAX">      1.00000000</i>
   <i name="AGGAX">      1.00000000</i>
   <i name="ALDAC">      1.00000000</i>
   <i name="AGGAC">      1.00000000</i>
   <i type="int" name="NKREDX">     1</i>
   <i type="int" name="NKREDY">     1</i>
   <i type="int" name="NKREDZ">     1</i>
   <i type="logical" name="SHIFTRED"> F  </i>
   <i type="logical" name="ODDONLY"> F  </i>
   <i type="logical" name="EVENONLY"> F  </i>
   <i type="int" name="LMAXFOCK">     0</i>
   <i type="int" name="NMAXFOCKAE">     0</i>
   <i type="logical" name="LFOCKAEDFT"> F  </i>
   <i name="HFSCREEN">      0.00000000</i>
   <i name="HFSCREENC">      0.00000000</i>
   <i type="int" name="NBANDSGWLOW">     0</i>
  </separator>
  <separator name="vdW DFT" >
   <i type="logical" name="LUSE_VDW"> F  </i>
   <i name="Zab_VDW">     -0.84910000</i>
   <i name="PARAM1">      0.12340000</i>
   <i name="PARAM2">      1.00000000</i>
   <i name="PARAM3">      0.00000000</i>
  </separator>
  <separator name="model GW" >
   <i type="int" name="MODEL_GW">     0</i>
   <i name="MODEL_EPS0">     85.60162727</i>
   <i name="MODEL_ALPHA">      1.00000000</i>
  </separator>
  <separator name="linear response parameters" >
   <i type="logical" name="LEPSILON"> F  </i>
   <i type="logical" name="LRPA"> F  </i>
   <i type="logical" name="LNABLA"> F  </i>
   <i type="logical" name="LVEL"> F  </i>
   <i type="int" name="KINTER">     0</i>
   <i name="CSHIFT">      0.10000000</i>
   <i name="OMEGAMAX">     -1.00000000</i>
   <i name="DEG_THRESHOLD">      0.00200000</i>
   <i name="RTIME">     -0.10000000</i>
   <i name="WPLASMAI">      0.00000000</i>
   <v name="DFIELD">      0.00000000      0.00000000      0.00000000</v>
   <v name="WPLASMA">      0.00000000      0.00000000      0.00000000      0.00000000      0.00000000      0.00000000      0.00000000      0.00000000      0.00000000</v>
  </separator>
  <separator name="orbital magnetization" >
   <i type="logical" name="NUCIND"> F  </i>
   <v name="MAGPOS">      0.00000000      0.00000000      0.00000000</v>
   <i type="logical" name="LNICSALL"> T  </i>
   <i type="logical" name="ORBITALMAG"> F  </i>
   <i type="logical" name="LMAGBLOCH"> F  </i>
   <i type="logical" name="LCHIMAG"> F  </i>
   <i type="logical" name="LGAUGE"> T  </i>
   <i type="int" name="MAGATOM">     0</i>
   <v name="MAGDIPOL">      0.00000000      0.00000000      0.00000000</v>
   <v name="AVECCONST">      0.00000000      0.00000000      0.00000000</v>
  </separator>
  <separator name="response functions" >
   <i type="logical" name="LADDER"> F  </i>
   <i type="logical" name="LRPAFORCE"> F  </i>
   <i type="logical" name="LFXC"> F  </i>
   <i type="logical" name="LHARTREE"> T  </i>
   <i type="int" name="IBSE">     0</i>
   <v type="int" name="KPOINT">    -1     0     0     0</v>
   <i type="logical" name="LTCTE"> F  </i>
   <i type="logical" name="LTETE"> F  </i>
   <i type="logical" name="LTRIPLET"> F  </i>
   <i type="logical" name="LFXCEPS"> F  </i>
   <i type="logical" name="LFXHEG"> F  </i>
   <i type="int" name="NATURALO">     2</i>
   <i type="logical" name="L2ORDER"> F  </i>
   <i type="logical" name="LMP2LT"> F  </i>
   <i type="logical" name="LUSEW"> F  </i>
   <i name="ENCUTGW">     -2.00000000</i>
   <i name="ENCUTGWSOFT">     -2.00000000</i>
   <i name="ENCUTLF">     -1.00000000</i>
   <i type="int" name="LMAXMP2">    -1</i>
   <i name="SCISSOR">      0.00000000</i>
   <i type="int" name="NOMEGA">     0</i>
   <i type="int" name="NOMEGAR">     0</i>
   <i type="int" name="NBANDSGW">    -1</i>
   <i type="int" name="NBANDSO">    -1</i>
   <i type="int" name="NBANDSV">    -1</i>
   <i type="int" name="NELM">   200</i>
   <i type="int" name="NELMHF">     1</i>
   <i type="int" name="DIM">     3</i>
   <i type="int" name="ANTIRES">     0</i>
   <i name="OMEGAMAX">    -30.00000000</i>
   <i name="OMEGAMIN">    -30.00000000</i>
   <i name="OMEGATL">   -200.00000000</i>
   <i type="int" name="OMEGAGRID">   140</i>
   <i name="CSHIFT">     -0.10000000</i>
   <i type="logical" name="SELFENERGY"> F  </i>
   <i type="logical" name="LSPECTRAL"> F  </i>
   <i type="logical" name="LSPECTRALGW"> F  </i>
   <i type="logical" name="LSINGLES"> F  </i>
   <i type="logical" name="LFERMIGW"> F  </i>
   <i type="logical" name="ODDONLYGW"> F  </i>
   <i type="logical" name="EVENONLYGW"> F  </i>
   <i type="int" name="NKREDLFX">     1</i>
   <i type="int" name="NKREDLFY">     1</i>
   <i type="int" name="NKREDLFZ">     1</i>
   <i type="int" name="MAXMEM">  2800</i>
   <i type="int" name="TELESCOPE">     0</i>
   <i type="int" name="TAUPAR">     1</i>
   <i type="int" name="OMEGAPAR">    -1</i>
   <i name="LAMBDA">      1.00000000</i>
  </separator>
  <separator name="External order field" >
   <i name="OFIELD_KAPPA">      0.00000000</i>
   <v name="OFIELD_K">      0.00000000      0.00000000      0.00000000</v>
   <i name="OFIELD_Q6_NEAR">      0.00000000</i>
   <i name="OFIELD_Q6_FAR">      0.00000000</i>
   <i name="OFIELD_A">      0.00000000</i>
  </separator>
  <separator name="solvation model" >
   <i type="logical" name="LSOL"> F  </i>
  </separator>
 </parameters>
 <atominfo>
  <atoms>     102 </atoms>
  <types>       3 </types>
  <array name="atoms" >
   <dimension dim="1">ion</dimension>
   <field type="string">element</field>
   <field type="int">atomtype</field>
   <set>
    <rc><c>C </c><c>   1</c></rc>
    <rc><c>C </c><c>   1</c></rc>
    <rc><c>C </c><c>   1</c></rc>
    <rc><c>C </c><c>   1</c></rc>
    <rc><c>C </c><c>   1</c></rc>
    <rc><c>C </c><c>   1</c></rc>
    <rc><c>C </c><c>   1</c></rc>
    <rc><c>C </c><c>   1</c></rc>
    <rc><c>C </c><c>   1</c></rc>
    <rc><c>C </c><c>   1</c></rc>
    <rc><c>C </c><c>   1</c></rc>
    <rc><c>C </c><c>   1</c></rc>
    <rc><c>C </c><c>   1</c></rc>
    <rc><c>C </c><c>   1</c></rc>
    <rc><c>C </c><c>   1</c></rc>
    <rc><c>C </c><c>   1</c></rc>
    <rc><c>C </c><c>   1</c></rc>
    <rc><c>C </c><c>   1</c></rc>
    <rc><c>C </c><c>   1</c></rc>
    <rc><c>C </c><c>   1</c></rc>
    <rc><c>C </c><c>   1</c></rc>
    <rc><c>C </c><c>   1</c></rc>
    <rc><c>C </c><c>   1</c></rc>
    <rc><c>C </c><c>   1</c></rc>
    <rc><c>C </c><c>   1</c></rc>
    <rc><c>C </c><c>   1</c></rc>
    <rc><c>C </c><c>   1</c></rc>
    <rc><c>C </c><c>   1</c></rc>
    <rc><c>C </c><c>   1</c></rc>
    <rc><c>C </c><c>   1</c></rc>
    <rc><c>C </c><c>   1</c></rc>
    <rc><c>C </c><c>   1</c></rc>
    <rc><c>C </c><c>   1</c></rc>
    <rc><c>C </c><c>   1</c></rc>
    <rc><c>C </c><c>   1</c></rc>
    <rc><c>C </c><c>   1</c></rc>
    <rc><c>C </c><c>   1</c></rc>
    <rc><c>C </c><c>   1</c></rc>
    <rc><c>C </c><c>   1</c></rc>
    <rc><c>C </c><c>   1</c></rc>
    <rc><c>C </c><c>   1</c></rc>
    <rc><c>C </c><c>   1</c></rc>
    <rc><c>C </c><c>   1</c></rc>
    <rc><c>C </c><c>   1</c></rc>
    <rc><c>C </c><c>   1</c></rc>
    <rc><c>C </c><c>   1</c></rc>
    <rc><c>C </c><c>   1</c></rc>
    <rc><c>C </c><c>   1</c></rc>
    <rc><c>H </c><c>   2</c></rc>
    <rc><c>H </c><c>   2</c></rc>
    <rc><c>H </c><c>   2</c></rc>
    <rc><c>H </c><c>   2</c></rc>
    <rc><c>H </c><c>   2</c></rc>
    <rc><c>H </c><c>   2</c></rc>
    <rc><c>H </c><c>   2</c></rc>
    <rc><c>H </c><c>   2</c></rc>
    <rc><c>H </c><c>   2</c></rc>
    <rc><c>H </c><c>   2</c></rc>
    <rc><c>H </c><c>   2</c></rc>
    <rc><c>H </c><c>   2</c></rc>
    <rc><c>H </c><c>   2</c></rc>
    <rc><c>H </c><c>   2</c></rc>
    <rc><c>H </c><c>   2</c></rc>
    <rc><c>H </c><c>   2</c></rc>
    <rc><c>H </c><c>   2</c></rc>
    <rc><c>H </c><c>   2</c></rc>
    <rc><c>H </c><c>   2</c></rc>
    <rc><c>H </c><c>   2</c></rc>
    <rc><c>H </c><c>   2</c></rc>
    <rc><c>H </c><c>   2</c></rc>
    <rc><c>H </c><c>   2</c></rc>
    <rc><c>H </c><c>   2</c></rc>
    <rc><c>H </c><c>   2</c></rc>
    <rc><c>H </c><c>   2</c></rc>
    <rc><c>H </c><c>   2</c></rc>
    <rc><c>H </c><c>   2</c></rc>
    <rc><c>H </c><c>   2</c></rc>
    <rc><c>H </c><c>   2</c></rc>
    <rc><c>H </c><c>   2</c></rc>
    <rc><c>H </c><c>   2</c></rc>
    <rc><c>H </c><c>   2</c></rc>
    <rc><c>H </c><c>   2</c></rc>
    <rc><c>H </c><c>   2</c></rc>
    <rc><c>H </c><c>   2</c></rc>
    <rc><c>N </c><c>   3</c></rc>
    <rc><c>N </c><c>   3</c></rc>
    <rc><c>N </c><c>   3</c></rc>
    <rc><c>N </c><c>   3</c></rc>
    <rc><c>N </c><c>   3</c></rc>
    <rc><c>N </c><c>   3</c></rc>
    <rc><c>N </c><c>   3</c></rc>
    <rc><c>N </c><c>   3</c></rc>
    <rc><c>N </c><c>   3</c></rc>
    <rc><c>N </c><c>   3</c></rc>
    <rc><c>N </c><c>   3</c></rc>
    <rc><c>N </c><c>   3</c></rc>
    <rc><c>N </c><c>   3</c></rc>
    <rc><c>N </c><c>   3</c></rc>
    <rc><c>N </c><c>   3</c></rc>
    <rc><c>N </c><c>   3</c></rc>
    <rc><c>N </c><c>   3</c></rc>
    <rc><c>N </c><c>   3</c></rc>
   </set>
  </array>
  <array name="atomtypes" >
   <dimension dim="1">type</dimension>
   <field type="int">atomspertype</field>
   <field type="string">element</field>
   <field>mass</field>
   <field>valence</field>
   <field type="string">pseudopotential</field>
   <set>
    <rc><c>  48</c><c>C </c><c>     12.01100000</c><c>      4.00000000</c><c>  PAW_PBE C 08Apr2002                   </c></rc>
    <rc><c>  36</c><c>H </c><c>      1.00000000</c><c>      1.00000000</c><c>  PAW_PBE H 15Jun2001                   </c></rc>
    <rc><c>  18</c><c>N </c><c>     14.00100000</c><c>      5.00000000</c><c>  PAW_PBE N 08Apr2002                   </c></rc>
   </set>
  </array>
 </atominfo>
 <structure name="initialpos" >
  <crystal>
   <varray name="basis" >
    <v>      29.02134208      -0.11757399       0.00000000 </v>
    <v>     -14.61287507      25.13088209       0.00000000 </v>
    <v>       0.00000000       0.00000000      20.00000000 </v>
   </varray>
   <i name="volume">  14552.27663552 </i>
   <varray name="rec_basis" >
    <v>       0.03453876       0.02008328       0.00000000 </v>
    <v>       0.00016159       0.03988564       0.00000000 </v>
    <v>       0.00000000       0.00000000       0.05000000 </v>
   </varray>
  </crystal>
  <varray name="positions" >
   <v>       0.36449903       0.72257228       0.48723609 </v>
   <v>       0.30822114       0.69734082       0.48841523 </v>
   <v>       0.27733493       0.64169255       0.48724349 </v>
   <v>       0.30223941       0.61069072       0.48566913 </v>
   <v>       0.35798555       0.63585401       0.48472540 </v>
   <v>       0.38937870       0.69208878       0.48578060 </v>
   <v>       0.63478976       0.27718569       0.51498798 </v>
   <v>       0.69120732       0.30469662       0.51514515 </v>
   <v>       0.71997765       0.36045521       0.51354659 </v>
   <v>       0.69278777       0.38922990       0.51036544 </v>
   <v>       0.63691515       0.36182309       0.51018246 </v>
   <v>       0.60767457       0.30550437       0.51202222 </v>
   <v>       0.46918446       0.86608703       0.50381994 </v>
   <v>       0.49825955       0.97218978       0.49601352 </v>
   <v>       0.48012249       0.94492342       0.55810217 </v>
   <v>       0.46568595       0.89076924       0.56111453 </v>
   <v>       0.51730080       0.10052611       0.56146205 </v>
   <v>       0.50491362       0.04699574       0.55816407 </v>
   <v>       0.45056477       0.80748384       0.50245465 </v>
   <v>       0.39644894       0.53156185       0.49776571 </v>
   <v>       0.47275065       0.50193831       0.48752536 </v>
   <v>       0.46284613       0.51759274       0.55081552 </v>
   <v>       0.42364133       0.53253422       0.55500310 </v>
   <v>       0.57898970       0.47761013       0.55123448 </v>
   <v>       0.53869599       0.49108013       0.54889394 </v>
   <v>       0.35656030       0.55013008       0.49789345 </v>
   <v>       0.13393553       0.60200064       0.50693691 </v>
   <v>       0.02677990       0.52634825       0.49755912 </v>
   <v>       0.05444875       0.53138437       0.55835082 </v>
   <v>       0.10913426       0.57049949       0.56224403 </v>
   <v>       0.89695295       0.41495697       0.55908711 </v>
   <v>       0.95116495       0.45542716       0.55662110 </v>
   <v>       0.19286939       0.64205478       0.50632828 </v>
   <v>       0.48813722       0.89729401       0.44475522 </v>
   <v>       0.51150689       0.02712410       0.49602254 </v>
   <v>       0.53477059       0.13152107       0.50430629 </v>
   <v>       0.53945902       0.10737578       0.44499117 </v>
   <v>       0.55080372       0.18950987       0.50434566 </v>
   <v>       0.40942676       0.51496558       0.43739658 </v>
   <v>       0.51361952       0.48768510       0.48641873 </v>
   <v>       0.59291671       0.46196252       0.49298145 </v>
   <v>       0.56537978       0.46021113       0.43355733 </v>
   <v>       0.63403360       0.44498502       0.49233873 </v>
   <v>       0.10236146       0.59345103       0.44896564 </v>
   <v>       0.97118839       0.48540851       0.49660250 </v>
   <v>       0.86544394       0.40531694       0.50305618 </v>
   <v>       0.88983646       0.43726376       0.44564381 </v>
   <v>       0.80693011       0.36390047       0.50240452 </v>
   <v>       0.27743180       0.56735098       0.48497608 </v>
   <v>       0.43277334       0.71095904       0.48501878 </v>
   <v>       0.28963298       0.72184213       0.48960650 </v>
   <v>       0.37349406       0.79607942       0.50146534 </v>
   <v>       0.42292646       0.62713791       0.49580728 </v>
   <v>       0.20336038       0.57627640       0.49904722 </v>
   <v>       0.71593110       0.43266365       0.50874240 </v>
   <v>       0.56415298       0.28486802       0.51205154 </v>
   <v>       0.71157202       0.28189790       0.51760741 </v>
   <v>       0.62934379       0.20449268       0.50904790 </v>
   <v>       0.56974845       0.36656939       0.49673616 </v>
   <v>       0.79294749       0.42785146       0.50341071 </v>
   <v>       0.45182989       0.86976277       0.60874355 </v>
   <v>       0.51269695       0.11603002       0.60916494 </v>
   <v>       0.47282544       0.79959133       0.46382573 </v>
   <v>       0.45911565       0.79496044       0.55102540 </v>
   <v>       0.41600369       0.54461557       0.60353679 </v>
   <v>       0.59811878       0.47984889       0.59909575 </v>
   <v>       0.32549152       0.52776580       0.45996380 </v>
   <v>       0.33614990       0.54162559       0.54702462 </v>
   <v>       0.13040036       0.57466638       0.60898049 </v>
   <v>       0.88140702       0.39221149       0.60526997 </v>
   <v>       0.20108579       0.67394688       0.47013247 </v>
   <v>       0.20575886       0.66120164       0.55608629 </v>
   <v>       0.49147166       0.87854497       0.39889668 </v>
   <v>       0.55281839       0.13111640       0.39897805 </v>
   <v>       0.54111688       0.20027482       0.45523696 </v>
   <v>       0.52747426       0.19650397       0.54235950 </v>
   <v>       0.38807437       0.51358403       0.39155662 </v>
   <v>       0.57598369       0.44818550       0.38674903 </v>
   <v>       0.65365003       0.45329815       0.44265354 </v>
   <v>       0.66549723       0.46873525       0.52919102 </v>
   <v>       0.12121803       0.61806992       0.40464056 </v>
   <v>       0.86578473       0.42986825       0.40033741 </v>
   <v>       0.79599815       0.34309798       0.45342116 </v>
   <v>       0.79888059       0.33348135       0.54074110 </v>
   <v>       0.39386242       0.77798256       0.48656411 </v>
   <v>       0.38395137       0.60670910       0.48183870 </v>
   <v>       0.22185134       0.61549023       0.48661857 </v>
   <v>       0.60745574       0.22191145       0.51945538 </v>
   <v>       0.60879334       0.38884317       0.50988864 </v>
   <v>       0.77544638       0.38886871       0.51661353 </v>
   <v>       0.48692100       0.01705253       0.61650856 </v>
   <v>       0.47502374       0.96788392       0.61648954 </v>
   <v>       0.52611657       0.50684551       0.60845416 </v>
   <v>       0.48952919       0.51958031       0.60938950 </v>
   <v>       0.98158225       0.46316739       0.61365072 </v>
   <v>       0.03133604       0.49982544       0.61453021 </v>
   <v>       0.50259294       0.94834991       0.44007616 </v>
   <v>       0.52864411       0.05737974       0.43999431 </v>
   <v>       0.44581997       0.50047183       0.43150569 </v>
   <v>       0.52712041       0.47233408       0.42930988 </v>
   <v>       0.05081903       0.55759430       0.44359925 </v>
   <v>       0.94046993       0.47604322       0.44157865 </v>
  </varray>
 </structure>
 <calculation>
  <scstep>
   <time name="dav"> 1102.40 1116.23</time>
   <time name="total"> 1102.65 1116.49</time>
   <energy>
    <i name="alphaZ">     31.93374641 </i>
    <i name="ewald">  37586.47835302 </i>
    <i name="hartreedc"> -47544.07818956 </i>
    <i name="XCdc">   1125.45389191 </i>
    <i name="pawpsdc">  29662.02494086 </i>
    <i name="pawaedc"> -29720.95812111 </i>
    <i name="eentropy">     -0.00000000 </i>
    <i name="bandstr">  -4122.50587778 </i>
    <i name="atom">  12274.26300618 </i>
    <i name="e_fr_energy">   -707.38825007 </i>
    <i name="e_wo_entrp">   -707.38825007 </i>
    <i name="e_0_energy">   -707.38825007 </i>
   </energy>
  </scstep>
  <scstep>
   <time name="dav"> 1236.07 1250.53</time>
   <time name="total"> 1236.08 1250.54</time>
   <energy>
    <i name="e_fr_energy">   -707.97170822 </i>
    <i name="e_wo_entrp">   -707.97170822 </i>
    <i name="e_0_energy">   -707.97170822 </i>
   </energy>
  </scstep>
  <scstep>
   <time name="dav"> 1377.49 1393.00</time>
   <time name="total"> 1377.49 1393.01</time>
   <energy>
    <i name="e_fr_energy">   -707.98748584 </i>
    <i name="e_wo_entrp">   -707.98748584 </i>
    <i name="e_0_energy">   -707.98748584 </i>
   </energy>
  </scstep>
  <scstep>
   <time name="dav"> 1251.29 1265.20</time>
   <time name="total"> 1251.30 1265.21</time>
   <energy>
    <i name="e_fr_energy">   -707.98777332 </i>
    <i name="e_wo_entrp">   -707.98777332 </i>
    <i name="e_0_energy">   -707.98777332 </i>
   </energy>
  </scstep>
  <scstep>
   <time name="dav"> 1233.35 1247.04</time>
   <time name="total"> 1233.35 1247.04</time>
   <energy>
    <i name="e_fr_energy">   -707.98778628 </i>
    <i name="e_wo_entrp">   -707.98778628 </i>
    <i name="e_0_energy">   -707.98778628 </i>
   </energy>
  </scstep>
  <scstep>
   <time name="dav">  988.65  999.59</time>
   <time name="total">  988.65  999.60</time>
   <energy>
    <i name="alphaZ">     31.93374641 </i>
    <i name="ewald">  37586.47835302 </i>
    <i name="hartreedc"> -47544.07818956 </i>
    <i name="XCdc">   1125.45389191 </i>
    <i name="pawpsdc">  29662.02494086 </i>
    <i name="pawaedc"> -29720.95812111 </i>
    <i name="eentropy">     -0.00000000 </i>
    <i name="bandstr">  -4123.10541453 </i>
    <i name="atom">  12274.26300618 </i>
    <i name="e_fr_energy">   -707.98778682 </i>
    <i name="e_wo_entrp">   -707.98778682 </i>
    <i name="e_0_energy">   -707.98778682 </i>
   </energy>
  </scstep>
  <structure>
   <crystal>
    <varray name="basis" >
     <v>      29.02134208      -0.11757399       0.00000000 </v>
     <v>     -14.61287507      25.13088209       0.00000000 </v>
     <v>       0.00000000       0.00000000      20.00000000 </v>
    </varray>
    <i name="volume">  14552.27663552 </i>
    <varray name="rec_basis" >
     <v>       0.03453876       0.02008328       0.00000000 </v>
     <v>       0.00016159       0.03988564       0.00000000 </v>
     <v>       0.00000000       0.00000000       0.05000000 </v>
    </varray>
   </crystal>
   <varray name="positions" >
    <v>       0.36449903       0.72257228       0.48723609 </v>
    <v>       0.30822114       0.69734082       0.48841523 </v>
    <v>       0.27733493       0.64169255       0.48724349 </v>
    <v>       0.30223941       0.61069072       0.48566913 </v>
    <v>       0.35798555       0.63585401       0.48472540 </v>
    <v>       0.38937870       0.69208878       0.48578060 </v>
    <v>       0.63478976       0.27718569       0.51498798 </v>
    <v>       0.69120732       0.30469662       0.51514515 </v>
    <v>       0.71997765       0.36045521       0.51354659 </v>
    <v>       0.69278777       0.38922990       0.51036544 </v>
    <v>       0.63691515       0.36182309       0.51018246 </v>
    <v>       0.60767457       0.30550437       0.51202222 </v>
    <v>       0.46918446       0.86608703       0.50381994 </v>
    <v>       0.49825955       0.97218978       0.49601352 </v>
    <v>       0.48012249       0.94492342       0.55810217 </v>
    <v>       0.46568595       0.89076924       0.56111453 </v>
    <v>       0.51730080       0.10052611       0.56146205 </v>
    <v>       0.50491362       0.04699574       0.55816407 </v>
    <v>       0.45056477       0.80748384       0.50245465 </v>
    <v>       0.39644894       0.53156185       0.49776571 </v>
    <v>       0.47275065       0.50193831       0.48752536 </v>
    <v>       0.46284613       0.51759274       0.55081552 </v>
    <v>       0.42364133       0.53253422       0.55500310 </v>
    <v>       0.57898970       0.47761013       0.55123448 </v>
    <v>       0.53869599       0.49108013       0.54889394 </v>
    <v>       0.35656030       0.55013008       0.49789345 </v>
    <v>       0.13393553       0.60200064       0.50693691 </v>
    <v>       0.02677990       0.52634825       0.49755912 </v>
    <v>       0.05444875       0.53138437       0.55835082 </v>
    <v>       0.10913426       0.57049949       0.56224403 </v>
    <v>       0.89695295       0.41495697       0.55908711 </v>
    <v>       0.95116495       0.45542716       0.55662110 </v>
    <v>       0.19286939       0.64205478       0.50632828 </v>
    <v>       0.48813722       0.89729401       0.44475522 </v>
    <v>       0.51150689       0.02712410       0.49602254 </v>
    <v>       0.53477059       0.13152107       0.50430629 </v>
    <v>       0.53945902       0.10737578       0.44499117 </v>
    <v>       0.55080372       0.18950987       0.50434566 </v>
    <v>       0.40942676       0.51496558       0.43739658 </v>
    <v>       0.51361952       0.48768510       0.48641873 </v>
    <v>       0.59291671       0.46196252       0.49298145 </v>
    <v>       0.56537978       0.46021113       0.43355733 </v>
    <v>       0.63403360       0.44498502       0.49233873 </v>
    <v>       0.10236146       0.59345103       0.44896564 </v>
    <v>       0.97118839       0.48540851       0.49660250 </v>
    <v>       0.86544394       0.40531694       0.50305618 </v>
    <v>       0.88983646       0.43726376       0.44564381 </v>
    <v>       0.80693011       0.36390047       0.50240452 </v>
    <v>       0.27743180       0.56735098       0.48497608 </v>
    <v>       0.43277334       0.71095904       0.48501878 </v>
    <v>       0.28963298       0.72184213       0.48960650 </v>
    <v>       0.37349406       0.79607942       0.50146534 </v>
    <v>       0.42292646       0.62713791       0.49580728 </v>
    <v>       0.20336038       0.57627640       0.49904722 </v>
    <v>       0.71593110       0.43266365       0.50874240 </v>
    <v>       0.56415298       0.28486802       0.51205154 </v>
    <v>       0.71157202       0.28189790       0.51760741 </v>
    <v>       0.62934379       0.20449268       0.50904790 </v>
    <v>       0.56974845       0.36656939       0.49673616 </v>
    <v>       0.79294749       0.42785146       0.50341071 </v>
    <v>       0.45182989       0.86976277       0.60874355 </v>
    <v>       0.51269695       0.11603002       0.60916494 </v>
    <v>       0.47282544       0.79959133       0.46382573 </v>
    <v>       0.45911565       0.79496044       0.55102540 </v>
    <v>       0.41600369       0.54461557       0.60353679 </v>
    <v>       0.59811878       0.47984889       0.59909575 </v>
    <v>       0.32549152       0.52776580       0.45996380 </v>
    <v>       0.33614990       0.54162559       0.54702462 </v>
    <v>       0.13040036       0.57466638       0.60898049 </v>
    <v>       0.88140702       0.39221149       0.60526997 </v>
    <v>       0.20108579       0.67394688       0.47013247 </v>
    <v>       0.20575886       0.66120164       0.55608629 </v>
    <v>       0.49147166       0.87854497       0.39889668 </v>
    <v>       0.55281839       0.13111640       0.39897805 </v>
    <v>       0.54111688       0.20027482       0.45523696 </v>
    <v>       0.52747426       0.19650397       0.54235950 </v>
    <v>       0.38807437       0.51358403       0.39155662 </v>
    <v>       0.57598369       0.44818550       0.38674903 </v>
    <v>       0.65365003       0.45329815       0.44265354 </v>
    <v>       0.66549723       0.46873525       0.52919102 </v>
    <v>       0.12121803       0.61806992       0.40464056 </v>
    <v>       0.86578473       0.42986825       0.40033741 </v>
    <v>       0.79599815       0.34309798       0.45342116 </v>
    <v>       0.79888059       0.33348135       0.54074110 </v>
    <v>       0.39386242       0.77798256       0.48656411 </v>
    <v>       0.38395137       0.60670910       0.48183870 </v>
    <v>       0.22185134       0.61549023       0.48661857 </v>
    <v>       0.60745574       0.22191145       0.51945538 </v>
    <v>       0.60879334       0.38884317       0.50988864 </v>
    <v>       0.77544638       0.38886871       0.51661353 </v>
    <v>       0.48692100       0.01705253       0.61650856 </v>
    <v>       0.47502374       0.96788392       0.61648954 </v>
    <v>       0.52611657       0.50684551       0.60845416 </v>
    <v>       0.48952919       0.51958031       0.60938950 </v>
    <v>       0.98158225       0.46316739       0.61365072 </v>
    <v>       0.03133604       0.49982544       0.61453021 </v>
    <v>       0.50259294       0.94834991       0.44007616 </v>
    <v>       0.52864411       0.05737974       0.43999431 </v>
    <v>       0.44581997       0.50047183       0.43150569 </v>
    <v>       0.52712041       0.47233408       0.42930988 </v>
    <v>       0.05081903       0.55759430       0.44359925 </v>
    <v>       0.94046993       0.47604322       0.44157865 </v>
   </varray>
  </structure>
  <varray name="forces" >
   <v>       0.00043761      -0.00342965       0.00281799 </v>
   <v>      -0.00167697       0.00227742      -0.00090221 </v>
   <v>       0.00016059       0.00208131       0.00063934 </v>
   <v>      -0.00243206       0.00186641       0.00057800 </v>
   <v>      -0.00259687       0.00000038      -0.00316286 </v>
   <v>       0.00029664      -0.00100600       0.00037182 </v>
   <v>      -0.00169504       0.00262864      -0.00120973 </v>
   <v>       0.00126823       0.00011703       0.00096411 </v>
   <v>      -0.00094492       0.00138441      -0.00133301 </v>
   <v>      -0.00076861       0.00355122      -0.00126787 </v>
   <v>      -0.00354362       0.00022660       0.00159389 </v>
   <v>      -0.00134131       0.00020849      -0.00093529 </v>
   <v>      -0.00058057       0.00537818      -0.00148150 </v>
   <v>      -0.00106413      -0.00033861       0.00206730 </v>
   <v>       0.00061040       0.00104123       0.00117721 </v>
   <v>      -0.00092774       0.00129738       0.00083803 </v>
   <v>      -0.00008978       0.00441559      -0.00236831 </v>
   <v>       0.00107495      -0.00462026       0.00036017 </v>
   <v>      -0.00265951       0.00016519      -0.00105715 </v>
   <v>      -0.00655772       0.00280910      -0.00263234 </v>
   <v>       0.00019959      -0.00112286      -0.00308100 </v>
   <v>      -0.00646567      -0.00119962      -0.00160918 </v>
   <v>       0.00383713      -0.00049193       0.00559784 </v>
   <v>      -0.00150240      -0.00838281       0.00159085 </v>
   <v>       0.00188930      -0.00240024      -0.00667697 </v>
   <v>       0.00195256      -0.00206084      -0.00020902 </v>
   <v>       0.00451601      -0.00034849       0.00135900 </v>
   <v>       0.00566158       0.00228533      -0.00353611 </v>
   <v>       0.00112911      -0.00276471      -0.00420292 </v>
   <v>      -0.00694425      -0.00103115       0.00241115 </v>
   <v>       0.00341099       0.00173837      -0.00766375 </v>
   <v>       0.00277652      -0.00344852       0.00232642 </v>
   <v>       0.00083830      -0.00092814      -0.00036912 </v>
   <v>      -0.00110404      -0.00099098      -0.00135911 </v>
   <v>      -0.00038082      -0.00577818      -0.00269026 </v>
   <v>       0.00002251      -0.00137490       0.00205895 </v>
   <v>      -0.00307215       0.00464305       0.00324021 </v>
   <v>      -0.00261913      -0.00013275       0.00065936 </v>
   <v>      -0.00015254       0.00094190       0.00087377 </v>
   <v>       0.00352558      -0.00098326      -0.00200950 </v>
   <v>       0.00009372       0.00300337      -0.00087164 </v>
   <v>      -0.00096744       0.00460748      -0.00020474 </v>
   <v>       0.00005672       0.00179903       0.00071846 </v>
   <v>      -0.00191113       0.00161322      -0.00616347 </v>
   <v>       0.00551394      -0.00426373      -0.00298921 </v>
   <v>      -0.00076128      -0.00241988       0.00016857 </v>
   <v>       0.00818468      -0.00341236       0.00067277 </v>
   <v>       0.00226883      -0.00546686      -0.00120264 </v>
   <v>      -0.00059781      -0.00246924      -0.00047287 </v>
   <v>      -0.00184202       0.00156130       0.00078523 </v>
   <v>       0.00011064      -0.00278465       0.00105244 </v>
   <v>      -0.00010664      -0.00149239       0.00085615 </v>
   <v>      -0.00038553       0.00082435      -0.00079408 </v>
   <v>      -0.00127805      -0.00058485       0.00038765 </v>
   <v>       0.00065506      -0.00441304       0.00051362 </v>
   <v>       0.00148873       0.00119309      -0.00002753 </v>
   <v>       0.00059787      -0.00302787      -0.00110619 </v>
   <v>      -0.00076385       0.00085720      -0.00098476 </v>
   <v>      -0.00004888       0.00064805      -0.00029403 </v>
   <v>      -0.00197016       0.00137469      -0.00133309 </v>
   <v>      -0.00025316       0.00040418       0.00113329 </v>
   <v>      -0.00085776       0.00087793      -0.00012103 </v>
   <v>      -0.00000965      -0.00106704      -0.00123630 </v>
   <v>      -0.00059000       0.00103986       0.00042283 </v>
   <v>      -0.00267399      -0.00353579      -0.00075346 </v>
   <v>      -0.00041374      -0.00132742       0.00257661 </v>
   <v>       0.00208044       0.00219368       0.00127132 </v>
   <v>       0.00172098      -0.00067892      -0.00395678 </v>
   <v>       0.00085222      -0.00270940       0.00133091 </v>
   <v>      -0.00436050      -0.00088423       0.00407555 </v>
   <v>       0.00022873      -0.00004217       0.00107972 </v>
   <v>      -0.00129085       0.00237372       0.00261510 </v>
   <v>      -0.00061515       0.00063079       0.00104136 </v>
   <v>       0.00175196      -0.00273786       0.00147662 </v>
   <v>       0.00343896       0.00223719       0.00164439 </v>
   <v>       0.00144094      -0.00118569       0.00074490 </v>
   <v>       0.00261850       0.00851600      -0.00359379 </v>
   <v>       0.00290883       0.00029314      -0.00066163 </v>
   <v>      -0.00094374       0.00055504       0.00119545 </v>
   <v>      -0.00024332       0.00163652       0.00459425 </v>
   <v>      -0.00053992      -0.00031974       0.00243273 </v>
   <v>       0.00060361      -0.00112610      -0.00230078 </v>
   <v>      -0.00077088       0.00383247       0.00103262 </v>
   <v>       0.00211550       0.00180528      -0.00059653 </v>
   <v>      -0.00291359      -0.00398996       0.00321445 </v>
   <v>      -0.00059728       0.00047352      -0.00157200 </v>
   <v>      -0.00054026       0.00001775      -0.00226175 </v>
   <v>       0.00077420      -0.00262573      -0.00076843 </v>
   <v>       0.00205925      -0.00042123       0.00572711 </v>
   <v>      -0.00014397       0.00008348       0.00111829 </v>
   <v>       0.00184007      -0.00013865      -0.00324989 </v>
   <v>      -0.00338818       0.00210568      -0.00374838 </v>
   <v>       0.00039170       0.00746118      -0.00045376 </v>
   <v>       0.00209778       0.00073968       0.00542889 </v>
   <v>      -0.00085723      -0.00380818       0.00272201 </v>
   <v>       0.00145824       0.00193403      -0.00192172 </v>
   <v>      -0.00019925      -0.00250020       0.00225418 </v>
   <v>      -0.00164519       0.00352058      -0.00135158 </v>
   <v>       0.00235244      -0.00228023      -0.00121464 </v>
   <v>       0.00448369       0.00465354       0.00170223 </v>
   <v>      -0.00406855       0.00087137       0.00696772 </v>
   <v>      -0.00012707      -0.00024838       0.00148109 </v>
  </varray>
  <varray name="stress" >
   <v>       0.01124605       0.00916913       0.01329449 </v>
   <v>       0.00916913       0.00223782       0.00811170 </v>
   <v>       0.01329449       0.00811171      -0.13869293 </v>
  </varray>
  <energy>
   <i name="e_fr_energy">   -709.87282321 </i>
   <i name="e_wo_entrp">   -709.87282321 </i>
   <i name="e_0_energy">     -0.00000000 </i>
  </energy>
  <time name="totalsc"> 8478.73 8578.35</time>
  <eigenvalues>
   <array>
    <dimension dim="1">band</dimension>
    <dimension dim="2">kpoint</dimension>
    <dimension dim="3">spin</dimension>
    <field>eigene</field>
    <field>occ</field>
    <set>
     <set comment="spin 1">
      <set comment="kpoint 1">
       <r>  -25.7721    1.0000 </r>
       <r>  -25.7690    1.0000 </r>
       <r>  -25.7597    1.0000 </r>
       <r>  -24.0205    1.0000 </r>
       <r>  -24.0158    1.0000 </r>
       <r>  -24.0044    1.0000 </r>
       <r>  -23.6976    1.0000 </r>
       <r>  -23.6678    1.0000 </r>
       <r>  -23.6581    1.0000 </r>
       <r>  -23.5041    1.0000 </r>
       <r>  -23.4335    1.0000 </r>
       <r>  -23.2890    1.0000 </r>
       <r>  -23.2848    1.0000 </r>
       <r>  -23.2451    1.0000 </r>
       <r>  -23.2411    1.0000 </r>
       <r>  -20.9915    1.0000 </r>
       <r>  -20.9426    1.0000 </r>
       <r>  -20.9336    1.0000 </r>
       <r>  -20.8489    1.0000 </r>
       <r>  -20.5470    1.0000 </r>
       <r>  -20.5392    1.0000 </r>
       <r>  -20.5112    1.0000 </r>
       <r>  -20.0169    1.0000 </r>
       <r>  -19.9462    1.0000 </r>
       <r>  -19.9372    1.0000 </r>
       <r>  -19.8610    1.0000 </r>
       <r>  -19.8539    1.0000 </r>
       <r>  -19.8257    1.0000 </r>
       <r>  -19.3381    1.0000 </r>
       <r>  -18.4314    1.0000 </r>
       <r>  -18.4262    1.0000 </r>
       <r>  -17.9849    1.0000 </r>
       <r>  -17.9820    1.0000 </r>
       <r>  -17.6728    1.0000 </r>
       <r>  -17.2089    1.0000 </r>
       <r>  -17.1892    1.0000 </r>
       <r>  -17.1852    1.0000 </r>
       <r>  -17.1343    1.0000 </r>
       <r>  -17.1306    1.0000 </r>
       <r>  -16.7586    1.0000 </r>
       <r>  -16.6585    1.0000 </r>
       <r>  -16.6546    1.0000 </r>
       <r>  -16.3204    1.0000 </r>
       <r>  -16.3153    1.0000 </r>
       <r>  -16.3058    1.0000 </r>
       <r>  -15.9270    1.0000 </r>
       <r>  -15.9209    1.0000 </r>
       <r>  -15.8580    1.0000 </r>
       <r>  -15.0962    1.0000 </r>
       <r>  -15.0901    1.0000 </r>
       <r>  -15.0735    1.0000 </r>
       <r>  -14.6695    1.0000 </r>
       <r>  -14.6622    1.0000 </r>
       <r>  -14.5565    1.0000 </r>
       <r>  -14.5496    1.0000 </r>
       <r>  -14.1324    1.0000 </r>
       <r>  -13.9130    1.0000 </r>
       <r>  -13.7154    1.0000 </r>
       <r>  -13.7132    1.0000 </r>
       <r>  -13.6331    1.0000 </r>
       <r>  -13.6239    1.0000 </r>
       <r>  -13.4423    1.0000 </r>
       <r>  -13.3692    1.0000 </r>
       <r>  -13.2224    1.0000 </r>
       <r>  -13.2163    1.0000 </r>
       <r>  -13.2058    1.0000 </r>
       <r>  -12.6329    1.0000 </r>
       <r>  -12.5948    1.0000 </r>
       <r>  -12.5920    1.0000 </r>
       <r>  -12.5074    1.0000 </r>
       <r>  -12.3074    1.0000 </r>
       <r>  -12.1387    1.0000 </r>
       <r>  -12.1336    1.0000 </r>
       <r>  -12.0799    1.0000 </r>
       <r>  -12.0108    1.0000 </r>
       <r>  -12.0041    1.0000 </r>
       <r>  -11.7390    1.0000 </r>
       <r>  -11.7258    1.0000 </r>
       <r>  -11.7088    1.0000 </r>
       <r>  -11.6221    1.0000 </r>
       <r>  -11.4298    1.0000 </r>
       <r>  -11.4214    1.0000 </r>
       <r>  -11.3708    1.0000 </r>
       <r>  -11.2220    1.0000 </r>
       <r>  -11.1923    1.0000 </r>
       <r>  -11.1851    1.0000 </r>
       <r>  -11.1027    1.0000 </r>
       <r>  -11.0922    1.0000 </r>
       <r>  -10.9301    1.0000 </r>
       <r>  -10.9199    1.0000 </r>
       <r>  -10.7248    1.0000 </r>
       <r>  -10.5495    1.0000 </r>
       <r>  -10.5070    1.0000 </r>
       <r>  -10.4986    1.0000 </r>
       <r>  -10.3237    1.0000 </r>
       <r>  -10.3133    1.0000 </r>
       <r>  -10.1994    1.0000 </r>
       <r>  -10.0440    1.0000 </r>
       <r>  -10.0398    1.0000 </r>
       <r>  -10.0050    1.0000 </r>
       <r>   -9.9356    1.0000 </r>
       <r>   -9.9120    1.0000 </r>
       <r>   -9.8913    1.0000 </r>
       <r>   -9.8474    1.0000 </r>
       <r>   -9.8374    1.0000 </r>
       <r>   -9.7661    1.0000 </r>
       <r>   -9.7505    1.0000 </r>
       <r>   -9.7375    1.0000 </r>
       <r>   -9.7247    1.0000 </r>
       <r>   -9.6715    1.0000 </r>
       <r>   -9.6645    1.0000 </r>
       <r>   -9.5840    1.0000 </r>
       <r>   -9.5451    1.0000 </r>
       <r>   -9.5107    1.0000 </r>
       <r>   -9.4147    1.0000 </r>
       <r>   -9.4010    1.0000 </r>
       <r>   -9.3587    1.0000 </r>
       <r>   -9.3018    1.0000 </r>
       <r>   -9.2922    1.0000 </r>
       <r>   -8.9961    1.0000 </r>
       <r>   -8.9265    1.0000 </r>
       <r>   -8.6269    1.0000 </r>
       <r>   -8.6252    1.0000 </r>
       <r>   -8.5780    1.0000 </r>
       <r>   -8.5746    1.0000 </r>
       <r>   -7.9459    1.0000 </r>
       <r>   -7.9386    1.0000 </r>
       <r>   -7.8878    1.0000 </r>
       <r>   -7.7976    1.0000 </r>
       <r>   -7.7947    1.0000 </r>
       <r>   -7.7838    1.0000 </r>
       <r>   -7.7060    1.0000 </r>
       <r>   -7.6624    1.0000 </r>
       <r>   -7.6593    1.0000 </r>
       <r>   -7.5152    1.0000 </r>
       <r>   -7.5098    1.0000 </r>
       <r>   -7.4411    1.0000 </r>
       <r>   -7.4298    1.0000 </r>
       <r>   -6.7244    1.0000 </r>
       <r>   -6.7159    1.0000 </r>
       <r>   -6.7059    1.0000 </r>
       <r>   -6.5128    1.0000 </r>
       <r>   -6.4896    1.0000 </r>
       <r>   -6.4777    1.0000 </r>
       <r>   -6.3066    1.0000 </r>
       <r>   -6.2998    1.0000 </r>
       <r>   -6.2898    1.0000 </r>
       <r>   -6.1433    1.0000 </r>
       <r>   -6.1372    1.0000 </r>
       <r>   -6.1258    1.0000 </r>
       <r>   -5.3534    1.0000 </r>
       <r>   -5.3273    1.0000 </r>
       <r>   -5.0687    1.0000 </r>
       <r>   -5.0654    1.0000 </r>
       <r>   -5.0555    1.0000 </r>
       <r>   -4.4959    1.0000 </r>
       <r>   -4.4923    1.0000 </r>
       <r>   -4.4739    1.0000 </r>
       <r>   -4.4715    1.0000 </r>
       <r>   -3.2132    0.0000 </r>
       <r>   -3.2078    0.0000 </r>
       <r>   -3.1978    0.0000 </r>
       <r>   -2.7134    0.0000 </r>
       <r>   -2.7056    0.0000 </r>
       <r>   -2.7000    0.0000 </r>
       <r>   -1.7766    0.0000 </r>
       <r>   -1.7671    0.0000 </r>
       <r>   -1.7507    0.0000 </r>
       <r>   -1.0981    0.0000 </r>
       <r>   -1.0945    0.0000 </r>
       <r>   -1.0837    0.0000 </r>
       <r>   -0.5533    0.0000 </r>
       <r>   -0.4743    0.0000 </r>
       <r>   -0.4671    0.0000 </r>
       <r>   -0.4604    0.0000 </r>
       <r>   -0.3438    0.0000 </r>
       <r>   -0.3304    0.0000 </r>
       <r>   -0.3295    0.0000 </r>
       <r>   -0.3100    0.0000 </r>
       <r>   -0.3043    0.0000 </r>
       <r>   -0.2976    0.0000 </r>
       <r>   -0.2901    0.0000 </r>
       <r>   -0.2247    0.0000 </r>
       <r>   -0.2221    0.0000 </r>
       <r>    0.0610    0.0000 </r>
       <r>    0.0670    0.0000 </r>
       <r>    0.0695    0.0000 </r>
       <r>    0.1033    0.0000 </r>
       <r>    0.1710    0.0000 </r>
       <r>    0.1811    0.0000 </r>
       <r>    0.2775    0.0000 </r>
       <r>    0.3189    0.0000 </r>
       <r>    0.3867    0.0000 </r>
       <r>    0.3894    0.0000 </r>
       <r>    0.4115    0.0000 </r>
       <r>    0.4692    0.0000 </r>
       <r>    0.4755    0.0000 </r>
       <r>    0.5132    0.0000 </r>
       <r>    0.5467    0.0000 </r>
       <r>    0.6093    0.0000 </r>
       <r>    0.6304    0.0000 </r>
       <r>    0.6322    0.0000 </r>
       <r>    0.6359    0.0000 </r>
       <r>    0.6449    0.0000 </r>
       <r>    0.7733    0.0000 </r>
       <r>    0.7772    0.0000 </r>
       <r>    0.7877    0.0000 </r>
       <r>    0.8157    0.0000 </r>
       <r>    0.8518    0.0000 </r>
       <r>    0.8567    0.0000 </r>
       <r>    0.8634    0.0000 </r>
       <r>    0.9268    0.0000 </r>
       <r>    0.9452    0.0000 </r>
       <r>    0.9549    0.0000 </r>
       <r>    0.9968    0.0000 </r>
       <r>    1.0069    0.0000 </r>
       <r>    1.0092    0.0000 </r>
       <r>    1.0578    0.0000 </r>
       <r>    1.0638    0.0000 </r>
       <r>    1.0679    0.0000 </r>
       <r>    1.0760    0.0000 </r>
       <r>    1.0878    0.0000 </r>
       <r>    1.0929    0.0000 </r>
       <r>    1.1362    0.0000 </r>
      </set>
      <set comment="kpoint 2">
       <r>  -25.7721    1.0000 </r>
       <r>  -25.7690    1.0000 </r>
       <r>  -25.7597    1.0000 </r>
       <r>  -24.0205    1.0000 </r>
       <r>  -24.0158    1.0000 </r>
       <r>  -24.0044    1.0000 </r>
       <r>  -23.6976    1.0000 </r>
       <r>  -23.6678    1.0000 </r>
       <r>  -23.6582    1.0000 </r>
       <r>  -23.5040    1.0000 </r>
       <r>  -23.4337    1.0000 </r>
       <r>  -23.2890    1.0000 </r>
       <r>  -23.2847    1.0000 </r>
       <r>  -23.2451    1.0000 </r>
       <r>  -23.2412    1.0000 </r>
       <r>  -20.9914    1.0000 </r>
       <r>  -20.9426    1.0000 </r>
       <r>  -20.9338    1.0000 </r>
       <r>  -20.8485    1.0000 </r>
       <r>  -20.5471    1.0000 </r>
       <r>  -20.5439    1.0000 </r>
       <r>  -20.5062    1.0000 </r>
       <r>  -20.0176    1.0000 </r>
       <r>  -19.9462    1.0000 </r>
       <r>  -19.9372    1.0000 </r>
       <r>  -19.8610    1.0000 </r>
       <r>  -19.8589    1.0000 </r>
       <r>  -19.8198    1.0000 </r>
       <r>  -19.3387    1.0000 </r>
       <r>  -18.4314    1.0000 </r>
       <r>  -18.4257    1.0000 </r>
       <r>  -17.9849    1.0000 </r>
       <r>  -17.9832    1.0000 </r>
       <r>  -17.6716    1.0000 </r>
       <r>  -17.2107    1.0000 </r>
       <r>  -17.1887    1.0000 </r>
       <r>  -17.1844    1.0000 </r>
       <r>  -17.1343    1.0000 </r>
       <r>  -17.1306    1.0000 </r>
       <r>  -16.7583    1.0000 </r>
       <r>  -16.6586    1.0000 </r>
       <r>  -16.6546    1.0000 </r>
       <r>  -16.3205    1.0000 </r>
       <r>  -16.3153    1.0000 </r>
       <r>  -16.3058    1.0000 </r>
       <r>  -15.9270    1.0000 </r>
       <r>  -15.9208    1.0000 </r>
       <r>  -15.8581    1.0000 </r>
       <r>  -15.0962    1.0000 </r>
       <r>  -15.0901    1.0000 </r>
       <r>  -15.0735    1.0000 </r>
       <r>  -14.6695    1.0000 </r>
       <r>  -14.6621    1.0000 </r>
       <r>  -14.5566    1.0000 </r>
       <r>  -14.5497    1.0000 </r>
       <r>  -14.1321    1.0000 </r>
       <r>  -13.9135    1.0000 </r>
       <r>  -13.7154    1.0000 </r>
       <r>  -13.7129    1.0000 </r>
       <r>  -13.6332    1.0000 </r>
       <r>  -13.6240    1.0000 </r>
       <r>  -13.4422    1.0000 </r>
       <r>  -13.3693    1.0000 </r>
       <r>  -13.2224    1.0000 </r>
       <r>  -13.2163    1.0000 </r>
       <r>  -13.2058    1.0000 </r>
       <r>  -12.6329    1.0000 </r>
       <r>  -12.5948    1.0000 </r>
       <r>  -12.5922    1.0000 </r>
       <r>  -12.5071    1.0000 </r>
       <r>  -12.3077    1.0000 </r>
       <r>  -12.1387    1.0000 </r>
       <r>  -12.1336    1.0000 </r>
       <r>  -12.0800    1.0000 </r>
       <r>  -12.0108    1.0000 </r>
       <r>  -12.0037    1.0000 </r>
       <r>  -11.7398    1.0000 </r>
       <r>  -11.7266    1.0000 </r>
       <r>  -11.7075    1.0000 </r>
       <r>  -11.6222    1.0000 </r>
       <r>  -11.4297    1.0000 </r>
       <r>  -11.4211    1.0000 </r>
       <r>  -11.3707    1.0000 </r>
       <r>  -11.2221    1.0000 </r>
       <r>  -11.1927    1.0000 </r>
       <r>  -11.1855    1.0000 </r>
       <r>  -11.1022    1.0000 </r>
       <r>  -11.0918    1.0000 </r>
       <r>  -10.9304    1.0000 </r>
       <r>  -10.9200    1.0000 </r>
       <r>  -10.7247    1.0000 </r>
       <r>  -10.5497    1.0000 </r>
       <r>  -10.5070    1.0000 </r>
       <r>  -10.4984    1.0000 </r>
       <r>  -10.3237    1.0000 </r>
       <r>  -10.3135    1.0000 </r>
       <r>  -10.1991    1.0000 </r>
       <r>  -10.0440    1.0000 </r>
       <r>  -10.0400    1.0000 </r>
       <r>  -10.0049    1.0000 </r>
       <r>   -9.9355    1.0000 </r>
       <r>   -9.9120    1.0000 </r>
       <r>   -9.8914    1.0000 </r>
       <r>   -9.8475    1.0000 </r>
       <r>   -9.8376    1.0000 </r>
       <r>   -9.7661    1.0000 </r>
       <r>   -9.7505    1.0000 </r>
       <r>   -9.7375    1.0000 </r>
       <r>   -9.7245    1.0000 </r>
       <r>   -9.6715    1.0000 </r>
       <r>   -9.6646    1.0000 </r>
       <r>   -9.5839    1.0000 </r>
       <r>   -9.5451    1.0000 </r>
       <r>   -9.5108    1.0000 </r>
       <r>   -9.4147    1.0000 </r>
       <r>   -9.4012    1.0000 </r>
       <r>   -9.3585    1.0000 </r>
       <r>   -9.3018    1.0000 </r>
       <r>   -9.2923    1.0000 </r>
       <r>   -8.9961    1.0000 </r>
       <r>   -8.9265    1.0000 </r>
       <r>   -8.6269    1.0000 </r>
       <r>   -8.6251    1.0000 </r>
       <r>   -8.5780    1.0000 </r>
       <r>   -8.5747    1.0000 </r>
       <r>   -7.9459    1.0000 </r>
       <r>   -7.9386    1.0000 </r>
       <r>   -7.8878    1.0000 </r>
       <r>   -7.7976    1.0000 </r>
       <r>   -7.7947    1.0000 </r>
       <r>   -7.7838    1.0000 </r>
       <r>   -7.7060    1.0000 </r>
       <r>   -7.6625    1.0000 </r>
       <r>   -7.6593    1.0000 </r>
       <r>   -7.5151    1.0000 </r>
       <r>   -7.5098    1.0000 </r>
       <r>   -7.4412    1.0000 </r>
       <r>   -7.4298    1.0000 </r>
       <r>   -6.7244    1.0000 </r>
       <r>   -6.7159    1.0000 </r>
       <r>   -6.7059    1.0000 </r>
       <r>   -6.5127    1.0000 </r>
       <r>   -6.4896    1.0000 </r>
       <r>   -6.4778    1.0000 </r>
       <r>   -6.3066    1.0000 </r>
       <r>   -6.2998    1.0000 </r>
       <r>   -6.2898    1.0000 </r>
       <r>   -6.1433    1.0000 </r>
       <r>   -6.1372    1.0000 </r>
       <r>   -6.1258    1.0000 </r>
       <r>   -5.3534    1.0000 </r>
       <r>   -5.3273    1.0000 </r>
       <r>   -5.0687    1.0000 </r>
       <r>   -5.0654    1.0000 </r>
       <r>   -5.0555    1.0000 </r>
       <r>   -4.4959    1.0000 </r>
       <r>   -4.4923    1.0000 </r>
       <r>   -4.4739    1.0000 </r>
       <r>   -4.4715    1.0000 </r>
       <r>   -3.2132    0.0000 </r>
       <r>   -3.2078    0.0000 </r>
[...]
       <r>   -23.2675    34.0632    25.3636 </r>
       <r>   -23.1688    23.9572    30.0000 </r>
       <r>   -23.0701     0.0000    30.0000 </r>
       <r>   -22.9713     0.0000    30.0000 </r>
       <r>   -22.8726     0.0000    30.0000 </r>
       <r>   -22.7738     0.0000    30.0000 </r>
       <r>   -22.6751     0.0000    30.0000 </r>
       <r>   -22.5763     0.0000    30.0000 </r>
       <r>   -22.4776     0.0000    30.0000 </r>
       <r>   -22.3788     0.0000    30.0000 </r>
       <r>   -22.2801     0.0000    30.0000 </r>
       <r>   -22.1813     0.0000    30.0000 </r>
       <r>   -22.0826     0.0000    30.0000 </r>
       <r>   -21.9838     0.0000    30.0000 </r>
       <r>   -21.8851     0.0000    30.0000 </r>
       <r>   -21.7864     0.0000    30.0000 </r>
       <r>   -21.6876     0.0000    30.0000 </r>
       <r>   -21.5889     0.0000    30.0000 </r>
       <r>   -21.4901     0.0000    30.0000 </r>
       <r>   -21.3914     0.0000    30.0000 </r>
       <r>   -21.2926     0.0000    30.0000 </r>
       <r>   -21.1939     0.0000    30.0000 </r>
       <r>   -21.0951     0.0000    30.0000 </r>
       <r>   -20.9964     1.0308    30.1018 </r>
       <r>   -20.8976    40.5068    36.0000 </r>
       <r>   -20.7989     4.7372    36.4678 </r>
       <r>   -20.7001    27.2461    39.3081 </r>
       <r>   -20.6014     2.6869    39.7820 </r>
       <r>   -20.5027    22.5428    42.0594 </r>
       <r>   -20.4039     2.0594    42.3201 </r>
       <r>   -20.3052     4.6590    42.8267 </r>
       <r>   -20.2064    10.7484    44.4281 </r>
       <r>   -20.1077     8.7322    45.5958 </r>
       <r>   -20.0089     3.6042    45.9893 </r>
       <r>   -19.9102    58.1692    51.7440 </r>
       <r>   -19.8114    22.6868    54.0737 </r>
       <r>   -19.7127     1.6208    54.2934 </r>
       <r>   -19.6139     1.9054    54.5215 </r>
       <r>   -19.5152    15.1790    56.0824 </r>
       <r>   -19.4164    12.3828    57.5562 </r>
       <r>   -19.3177     3.7117    57.9999 </r>
       <r>   -19.2189     0.0000    58.0000 </r>
       <r>   -19.1202     0.0000    58.0000 </r>
       <r>   -19.0215     0.0000    58.0000 </r>
       <r>   -18.9227     0.0000    58.0000 </r>
       <r>   -18.8240     0.0000    58.0000 </r>
       <r>   -18.7252     0.0000    58.0000 </r>
       <r>   -18.6265     0.0000    58.0000 </r>
       <r>   -18.5277     0.0000    58.0000 </r>
       <r>   -18.4290    10.5482    59.0416 </r>
       <r>   -18.3302     2.8882    60.5019 </r>
       <r>   -18.2315    15.3620    62.1003 </r>
       <r>   -18.1327    11.9112    63.5096 </r>
       <r>   -18.0340     1.8809    63.7524 </r>
       <r>   -17.9352    22.2790    66.0000 </r>
       <r>   -17.8365     0.0000    66.0000 </r>
       <r>   -17.7378     0.0000    66.0000 </r>
       <r>   -17.6390     2.0411    66.2015 </r>
       <r>   -17.5403     1.9202    66.4563 </r>
       <r>   -17.4415    13.0311    67.7868 </r>
       <r>   -17.3428    14.7835    69.4599 </r>
       <r>   -17.2440     2.5727    69.7874 </r>
       <r>   -17.1453    39.8912    73.8058 </r>
       <r>   -17.0465     0.0000    78.0000 </r>
       <r>   -16.9478     0.0000    78.0000 </r>
       <r>   -16.8490     0.0000    78.0000 </r>
       <r>   -16.7503     2.0951    78.2069 </r>
       <r>   -16.6515    50.2227    83.3761 </r>
       <r>   -16.5528     0.0000    84.0000 </r>
       <r>   -16.4540     0.0000    84.0000 </r>
       <r>   -16.3553     0.0000    84.0000 </r>
       <r>   -16.2566    60.7617    90.0000 </r>
       <r>   -16.1578     0.0000    90.0000 </r>
       <r>   -16.0591     0.0000    90.0000 </r>
       <r>   -15.9603     0.0000    90.0000 </r>
       <r>   -15.8616    58.6968    95.7961 </r>
       <r>   -15.7628     0.0000    96.0000 </r>
       <r>   -15.6641     0.0000    96.0000 </r>
       <r>   -15.5653     0.0000    96.0000 </r>
       <r>   -15.4666     0.0000    96.0000 </r>
       <r>   -15.3678     0.0000    96.0000 </r>
       <r>   -15.2691     0.0000    96.0000 </r>
       <r>   -15.1703     0.0000    96.0000 </r>
       <r>   -15.0716    53.5430   101.2872 </r>
       <r>   -14.9729     0.0000   102.0000 </r>
       <r>   -14.8741     0.0000   102.0000 </r>
       <r>   -14.7754     0.0000   102.0000 </r>
       <r>   -14.6766     1.1068   102.1093 </r>
       <r>   -14.5779    34.5445   107.5948 </r>
       <r>   -14.4791    22.2502   110.0000 </r>
       <r>   -14.3804     0.0000   110.0000 </r>
       <r>   -14.2816     0.0000   110.0000 </r>
       <r>   -14.1829     0.0000   110.0000 </r>
       <r>   -14.0841     4.8908   110.4829 </r>
       <r>   -13.9854    25.7719   113.4289 </r>
       <r>   -13.8866     4.3877   114.0000 </r>
       <r>   -13.7879     0.0000   114.0000 </r>
       <r>   -13.6892    24.0513   116.3750 </r>
       <r>   -13.5904    52.8151   122.0000 </r>
       <r>   -13.4917     0.0000   122.0000 </r>
       <r>   -13.3929    28.0432   124.7692 </r>
       <r>   -13.2942     2.6971   126.0000 </r>
       <r>   -13.1954    60.2398   131.9485 </r>
       <r>   -13.0967     0.0000   132.0000 </r>
       <r>   -12.9979     0.0000   132.0000 </r>
       <r>   -12.8992     0.0000   132.0000 </r>
       <r>   -12.8004     0.0000   132.0000 </r>
       <r>   -12.7017     0.0000   132.0000 </r>
       <r>   -12.6029    38.8083   135.8322 </r>
       <r>   -12.5042     1.1085   138.1095 </r>
       <r>   -12.4054    17.2147   140.0000 </r>
       <r>   -12.3067    19.5581   141.9313 </r>
       <r>   -12.2080     0.0000   142.0000 </r>
       <r>   -12.1092    40.5820   146.0073 </r>
       <r>   -12.0105    14.4246   148.5924 </r>
       <r>   -11.9117    11.3928   151.3250 </r>
       <r>   -11.8130    15.6976   153.5501 </r>
       <r>   -11.7142    24.0857   156.0118 </r>
       <r>   -11.6155    38.3980   159.9418 </r>
       <r>   -11.5167     0.0000   160.0000 </r>
       <r>   -11.4180     4.9299   160.4868 </r>
       <r>   -11.3192    44.3827   166.0000 </r>
       <r>   -11.2205    35.0778   169.4638 </r>
       <r>   -11.1217     5.5697   172.0003 </r>
       <r>   -11.0230    33.1928   175.2780 </r>
       <r>   -10.9243    35.9744   179.5523 </r>
       <r>   -10.8255     0.0000   180.0000 </r>
       <r>   -10.7268     0.9530   180.0941 </r>
       <r>   -10.6280    15.0041   182.0000 </r>
       <r>   -10.5293    20.2724   184.0018 </r>
       <r>   -10.4305    39.1205   187.9978 </r>
       <r>   -10.3318    18.0801   189.7853 </r>
       <r>   -10.2330     0.0000   192.0000 </r>
       <r>   -10.1343     8.7646   192.8655 </r>
       <r>   -10.0355    38.8319   197.6015 </r>
       <r>    -9.9368    34.3264   201.3896 </r>
       <r>    -9.8380    72.9543   209.5379 </r>
       <r>    -9.7393    47.3613   214.6768 </r>
       <r>    -9.6405    58.7321   221.9997 </r>
       <r>    -9.5418    29.6619   224.9290 </r>
       <r>    -9.4431    27.7411   228.7398 </r>
       <r>    -9.3443    34.5139   233.0582 </r>
       <r>    -9.2456    40.5078   238.0000 </r>
       <r>    -9.1468     0.0000   238.0000 </r>
       <r>    -9.0481     0.0000   238.0000 </r>
       <r>    -8.9493    20.4498   240.0193 </r>
       <r>    -8.8506     4.0447   242.0000 </r>
       <r>    -8.7518     0.0000   242.0000 </r>
       <r>    -8.6531     0.0015   242.0001 </r>
       <r>    -8.5543    80.9908   249.9977 </r>
       <r>    -8.4556     0.0000   250.0000 </r>
       <r>    -8.3568     0.0000   250.0000 </r>
       <r>    -8.2581     0.0000   250.0000 </r>
       <r>    -8.1594     0.0000   250.0000 </r>
       <r>    -8.0606     0.0000   250.0000 </r>
       <r>    -7.9619     0.1151   250.0114 </r>
       <r>    -7.8631    50.7741   256.0000 </r>
       <r>    -7.7644    60.7099   261.9949 </r>
       <r>    -7.6656    42.7648   266.2229 </r>
       <r>    -7.5669     0.0000   268.0000 </r>
       <r>    -7.4681    40.5321   272.0024 </r>
       <r>    -7.3694    39.3070   276.0000 </r>
       <r>    -7.2706     0.0000   276.0000 </r>
       <r>    -7.1719     0.0000   276.0000 </r>
       <r>    -7.0731     0.0000   276.0000 </r>
       <r>    -6.9744     0.0000   276.0000 </r>
       <r>    -6.8757     0.0000   276.0000 </r>
       <r>    -6.7769     0.0000   276.0000 </r>
       <r>    -6.6782    60.7611   281.9999 </r>
       <r>    -6.5794     0.0000   282.0000 </r>
       <r>    -6.4807    48.9019   286.8289 </r>
       <r>    -6.3819     0.0000   288.0000 </r>
       <r>    -6.2832    57.1871   293.6470 </r>
       <r>    -6.1844     0.0000   294.0000 </r>
       <r>    -6.0857    60.7617   300.0000 </r>
       <r>    -5.9869     0.0000   300.0000 </r>
       <r>    -5.8882     0.0000   300.0000 </r>
       <r>    -5.7894     0.0000   300.0000 </r>
       <r>    -5.6907     0.0000   300.0000 </r>
       <r>    -5.5919     0.0000   300.0000 </r>
       <r>    -5.4932     0.0000   300.0000 </r>
       <r>    -5.3945     0.0000   300.0000 </r>
       <r>    -5.2957    40.5078   304.0000 </r>
       <r>    -5.1970     0.0000   304.0000 </r>
       <r>    -5.0982     0.0003   304.0000 </r>
       <r>    -4.9995    60.7614   310.0000 </r>
       <r>    -4.9007     0.0000   310.0000 </r>
       <r>    -4.8020     0.0000   310.0000 </r>
       <r>    -4.7032     0.0000   310.0000 </r>
       <r>    -4.6045     0.0000   310.0000 </r>
       <r>    -4.5057     2.0489   310.2023 </r>
       <r>    -4.4070    40.5077   318.0000 </r>
       <r>    -4.3082     0.0000   318.0000 </r>
       <r>    -4.2095     0.0000   318.0000 </r>
       <r>    -4.1108     0.0000   318.0000 </r>
       <r>    -4.0120     0.0000   318.0000 </r>
       <r>    -3.9133     0.0000   318.0000 </r>
       <r>    -3.8145     0.0000   318.0000 </r>
       <r>    -3.7158     0.0000   318.0000 </r>
       <r>    -3.6170     0.0000   318.0000 </r>
       <r>    -3.5183     0.0000   318.0000 </r>
       <r>    -3.4195     0.0000   318.0000 </r>
       <r>    -3.3208     0.0000   318.0000 </r>
       <r>    -3.2220     2.6037   318.2571 </r>
       <r>    -3.1233    20.2478   324.0000 </r>
       <r>    -3.0245     0.0000   324.0000 </r>
       <r>    -2.9258     0.0000   324.0000 </r>
       <r>    -2.8271     0.0000   324.0000 </r>
       <r>    -2.7283     0.2066   324.0204 </r>
       <r>    -2.6296    40.4734   330.0000 </r>
       <r>    -2.5308     0.0000   330.0000 </r>
       <r>    -2.4321     0.0000   330.0000 </r>
       <r>    -2.3333     0.0000   330.0000 </r>
       <r>    -2.2346     0.0000   330.0000 </r>
       <r>    -2.1358     0.0000   330.0000 </r>
       <r>    -2.0371     0.0000   330.0000 </r>
       <r>    -1.9383     0.0000   330.0000 </r>
       <r>    -1.8396     0.0000   330.0000 </r>
       <r>    -1.7408    59.3548   335.8611 </r>
       <r>    -1.6421     0.0000   336.0000 </r>
       <r>    -1.5433     0.0000   336.0000 </r>
       <r>    -1.4446     0.0000   336.0000 </r>
       <r>    -1.3459     0.0000   336.0000 </r>
       <r>    -1.2471     0.0000   336.0000 </r>
       <r>    -1.1484     0.0000   336.0000 </r>
       <r>    -1.0496    60.7617   342.0000 </r>
       <r>    -0.9509     0.0000   342.0000 </r>
       <r>    -0.8521     0.0000   342.0000 </r>
       <r>    -0.7534     0.0000   342.0000 </r>
       <r>    -0.6546     0.0000   342.0000 </r>
       <r>    -0.5559     1.1193   342.1105 </r>
       <r>    -0.4571    48.6233   347.9533 </r>
       <r>    -0.3584    37.4780   352.1010 </r>
       <r>    -0.2596    91.8999   362.5921 </r>
       <r>    -0.1609    42.3599   368.0000 </r>
       <r>    -0.0622     0.0000   368.0000 </r>
       <r>     0.0366    30.2254   370.9846 </r>
       <r>     0.1353    44.3605   376.4309 </r>
       <r>     0.2341    30.3409   379.9797 </r>
       <r>     0.3328    13.8896   381.3715 </r>
       <r>     0.4316    76.2900   389.9835 </r>
       <r>     0.5303    72.3733   397.3969 </r>
       <r>     0.6291    43.4916   402.2946 </r>
       <r>     0.7278    45.3730   408.9312 </r>
       <r>     0.8266    61.5066   415.4570 </r>
       <r>     0.9253    89.1744   425.0403 </r>
       <r>     1.0241    86.0091   435.0934 </r>
       <r>     1.1228    83.9028   445.1530 </r>
       <r>     1.2216    11.3013   448.0000 </r>
       <r>     1.3203     0.0000   448.0000 </r>
       <r>     1.4190     0.0000   448.0000 </r>
       <r>     1.5178     0.0000   448.0000 </r>
       <r>     1.6165     0.0000   448.0000 </r>
       <r>     1.7153     0.0000   448.0000 </r>
       <r>     1.8140     0.0000   448.0000 </r>
       <r>     1.9128     0.0000   448.0000 </r>
       <r>     2.0115     0.0000   448.0000 </r>
       <r>     2.1103     0.0000   448.0000 </r>
       <r>     2.2090     0.0000   448.0000 </r>
       <r>     2.3078     0.0000   448.0000 </r>
       <r>     2.4065     0.0000   448.0000 </r>
       <r>     2.5053     0.0000   448.0000 </r>
      </set>
     </set>
    </array>
   </total>
  </dos>
 </calculation>
 <structure name="finalpos" >
  <crystal>
   <varray name="basis" >
    <v>      29.02134208      -0.11757399       0.00000000 </v>
    <v>     -14.61287507      25.13088209       0.00000000 </v>
    <v>       0.00000000       0.00000000      20.00000000 </v>
   </varray>
   <i name="volume">  14552.27663552 </i>
   <varray name="rec_basis" >
    <v>       0.03453876       0.02008328       0.00000000 </v>
    <v>       0.00016159       0.03988564       0.00000000 </v>
    <v>       0.00000000       0.00000000       0.05000000 </v>
   </varray>
  </crystal>
  <varray name="positions" >
   <v>       0.36449903       0.72257228       0.48723609 </v>
   <v>       0.30822114       0.69734082       0.48841523 </v>
   <v>       0.27733493       0.64169255       0.48724349 </v>
   <v>       0.30223941       0.61069072       0.48566913 </v>
   <v>       0.35798555       0.63585401       0.48472540 </v>
   <v>       0.38937870       0.69208878       0.48578060 </v>
   <v>       0.63478976       0.27718569       0.51498798 </v>
   <v>       0.69120732       0.30469662       0.51514515 </v>
   <v>       0.71997765       0.36045521       0.51354659 </v>
   <v>       0.69278777       0.38922990       0.51036544 </v>
   <v>       0.63691515       0.36182309       0.51018246 </v>
   <v>       0.60767457       0.30550437       0.51202222 </v>
   <v>       0.46918446       0.86608703       0.50381994 </v>
   <v>       0.49825955       0.97218978       0.49601352 </v>
   <v>       0.48012249       0.94492342       0.55810217 </v>
   <v>       0.46568595       0.89076924       0.56111453 </v>
   <v>       0.51730080       0.10052611       0.56146205 </v>
   <v>       0.50491362       0.04699574       0.55816407 </v>
   <v>       0.45056477       0.80748384       0.50245465 </v>
   <v>       0.39644894       0.53156185       0.49776571 </v>
   <v>       0.47275065       0.50193831       0.48752536 </v>
   <v>       0.46284613       0.51759274       0.55081552 </v>
   <v>       0.42364133       0.53253422       0.55500310 </v>
   <v>       0.57898970       0.47761013       0.55123448 </v>
   <v>       0.53869599       0.49108013       0.54889394 </v>
   <v>       0.35656030       0.55013008       0.49789345 </v>
   <v>       0.13393553       0.60200064       0.50693691 </v>
   <v>       0.02677990       0.52634825       0.49755912 </v>
   <v>       0.05444875       0.53138437       0.55835082 </v>
   <v>       0.10913426       0.57049949       0.56224403 </v>
   <v>       0.89695295       0.41495697       0.55908711 </v>
   <v>       0.95116495       0.45542716       0.55662110 </v>
   <v>       0.19286939       0.64205478       0.50632828 </v>
   <v>       0.48813722       0.89729401       0.44475522 </v>
   <v>       0.51150689       0.02712410       0.49602254 </v>
   <v>       0.53477059       0.13152107       0.50430629 </v>
   <v>       0.53945902       0.10737578       0.44499117 </v>
   <v>       0.55080372       0.18950987       0.50434566 </v>
   <v>       0.40942676       0.51496558       0.43739658 </v>
   <v>       0.51361952       0.48768510       0.48641873 </v>
   <v>       0.59291671       0.46196252       0.49298145 </v>
   <v>       0.56537978       0.46021113       0.43355733 </v>
   <v>       0.63403360       0.44498502       0.49233873 </v>
   <v>       0.10236146       0.59345103       0.44896564 </v>
   <v>       0.97118839       0.48540851       0.49660250 </v>
   <v>       0.86544394       0.40531694       0.50305618 </v>
   <v>       0.88983646       0.43726376       0.44564381 </v>
   <v>       0.80693011       0.36390047       0.50240452 </v>
   <v>       0.27743180       0.56735098       0.48497608 </v>
   <v>       0.43277334       0.71095904       0.48501878 </v>
   <v>       0.28963298       0.72184213       0.48960650 </v>
   <v>       0.37349406       0.79607942       0.50146534 </v>
   <v>       0.42292646       0.62713791       0.49580728 </v>
   <v>       0.20336038       0.57627640       0.49904722 </v>
   <v>       0.71593110       0.43266365       0.50874240 </v>
   <v>       0.56415298       0.28486802       0.51205154 </v>
   <v>       0.71157202       0.28189790       0.51760741 </v>
   <v>       0.62934379       0.20449268       0.50904790 </v>
   <v>       0.56974845       0.36656939       0.49673616 </v>
   <v>       0.79294749       0.42785146       0.50341071 </v>
   <v>       0.45182989       0.86976277       0.60874355 </v>
   <v>       0.51269695       0.11603002       0.60916494 </v>
   <v>       0.47282544       0.79959133       0.46382573 </v>
   <v>       0.45911565       0.79496044       0.55102540 </v>
   <v>       0.41600369       0.54461557       0.60353679 </v>
   <v>       0.59811878       0.47984889       0.59909575 </v>
   <v>       0.32549152       0.52776580       0.45996380 </v>
   <v>       0.33614990       0.54162559       0.54702462 </v>
   <v>       0.13040036       0.57466638       0.60898049 </v>
   <v>       0.88140702       0.39221149       0.60526997 </v>
   <v>       0.20108579       0.67394688       0.47013247 </v>
   <v>       0.20575886       0.66120164       0.55608629 </v>
   <v>       0.49147166       0.87854497       0.39889668 </v>
   <v>       0.55281839       0.13111640       0.39897805 </v>
   <v>       0.54111688       0.20027482       0.45523696 </v>
   <v>       0.52747426       0.19650397       0.54235950 </v>
   <v>       0.38807437       0.51358403       0.39155662 </v>
   <v>       0.57598369       0.44818550       0.38674903 </v>
   <v>       0.65365003       0.45329815       0.44265354 </v>
   <v>       0.66549723       0.46873525       0.52919102 </v>
   <v>       0.12121803       0.61806992       0.40464056 </v>
   <v>       0.86578473       0.42986825       0.40033741 </v>
   <v>       0.79599815       0.34309798       0.45342116 </v>
   <v>       0.79888059       0.33348135       0.54074110 </v>
   <v>       0.39386242       0.77798256       0.48656411 </v>
   <v>       0.38395137       0.60670910       0.48183870 </v>
   <v>       0.22185134       0.61549023       0.48661857 </v>
   <v>       0.60745574       0.22191145       0.51945538 </v>
   <v>       0.60879334       0.38884317       0.50988864 </v>
   <v>       0.77544638       0.38886871       0.51661353 </v>
   <v>       0.48692100       0.01705253       0.61650856 </v>
   <v>       0.47502374       0.96788392       0.61648954 </v>
   <v>       0.52611657       0.50684551       0.60845416 </v>
   <v>       0.48952919       0.51958031       0.60938950 </v>
   <v>       0.98158225       0.46316739       0.61365072 </v>
   <v>       0.03133604       0.49982544       0.61453021 </v>
   <v>       0.50259294       0.94834991       0.44007616 </v>
   <v>       0.52864411       0.05737974       0.43999431 </v>
   <v>       0.44581997       0.50047183       0.43150569 </v>
   <v>       0.52712041       0.47233408       0.42930988 </v>
   <v>       0.05081903       0.55759430       0.44359925 </v>
   <v>       0.94046993       0.47604322       0.44157865 </v>
  </varray>
 </structure>
</modeling>
