<?xml version="1.0" encoding="ISO-8859-1"?>
<modeling>
 <generator>
  <i name="program" type="string">vasp </i>
  <i name="version" type="string">5.4.4.18Apr17-6-g9f103f2a35  </i>
  <i name="subversion" type="string">(build Jun 07 2020 16:50:00) complex            parallel </i>
  <i name="platform" type="string">LinuxIFC </i>
  <i name="date" type="string">2023 02 27 </i>
  <i name="time" type="string">02:48:52 </i>
 </generator>
 <incar>
  <i type="string" name="SYSTEM">Simulation for cell shape cell volume r</i>
  <i type="int" name="ISTART">     1</i>
  <i type="string" name="PREC">high</i>
  <i type="string" name="ALGO">48</i>
  <i type="int" name="ICHARG">    11</i>
  <i type="int" name="NELM">   200</i>
  <i type="int" name="IBRION">    -1</i>
  <i name="EDIFF">      0.00001000</i>
  <i name="EDIFFG">     -0.01000000</i>
  <i type="int" name="NSW">     0</i>
  <i type="int" name="ISIF">     2</i>
  <i name="ENCUT">    500.00000000</i>
  <i name="POTIM">      0.30000000</i>
  <i type="string" name="LREAL">A</i>
  <i type="int" name="ISMEAR">     0</i>
  <i name="SIGMA">      0.01000000</i>
  <i type="int" name="NWRITE">     0</i>
  <i type="logical" name="LWAVE"> F  </i>
  <i type="logical" name="LCHARG"> F  </i>
  <v type="int" name="KPOINT_BSE">    -1     0     0     0</v>
  <i type="int" name="NELM">   200</i>
  <i type="string" name="GGA">PE</i>
 </incar>
 <structure name="primitive_cell" >
  <crystal>
   <varray name="basis" >
    <v>      25.58459808      -0.09774049       0.00000000 </v>
    <v>      -0.11176803      25.61111095       0.00000000 </v>
    <v>       0.00000000       0.00000000      20.00000000 </v>
   </varray>
   <i name="volume">  13104.78111519 </i>
   <varray name="rec_basis" >
    <v>       0.03908667       0.00017058       0.00000000 </v>
    <v>       0.00014917       0.03904620       0.00000000 </v>
    <v>       0.00000000       0.00000000       0.05000000 </v>
   </varray>
  </crystal>
  <varray name="positions" >
   <v>      -0.09819901      -0.13951268       0.46993807 </v>
   <v>      -0.10323964      -0.18121928       0.46297078 </v>
   <v>      -0.13672133      -0.10302167       0.47805554 </v>
   <v>      -0.04861757      -0.11298817       0.47232680 </v>
   <v>      -0.17857469      -0.10987450       0.47978372 </v>
   <v>      -0.05911043      -0.06068674       0.47995876 </v>
   <v>      -0.11218179      -0.05268892       0.48417825 </v>
   <v>       0.00126081      -0.13568442       0.46878917 </v>
   <v>      -0.03751315      -0.20649716      -0.44254971 </v>
   <v>       0.00281750      -0.19360840       0.46403529 </v>
   <v>      -0.01959860      -0.22512006      -0.48584090 </v>
   <v>      -0.03119721      -0.03203585       0.48220921 </v>
   <v>      -0.13737716      -0.00472976       0.49435369 </v>
   <v>       0.04914646      -0.10772046       0.47017646 </v>
   <v>       0.02553041      -0.21848081       0.40855635 </v>
   <v>      -0.01951965      -0.27932003      -0.49070935 </v>
   <v>      -0.19542025      -0.00677719      -0.49907765 </v>
   <v>      -0.20980441      -0.02849232       0.39826636 </v>
   <v>       0.04254748      -0.19463380       0.36879826 </v>
   <v>       0.05459446      -0.05442675       0.47187580 </v>
   <v>      -0.22764246      -0.01984976       0.44654820 </v>
   <v>      -0.03853897      -0.30280266      -0.45206487 </v>
   <v>      -0.11243666       0.04446323      -0.49981570 </v>
   <v>       0.02539125      -0.27260697       0.40307235 </v>
   <v>       0.00340589      -0.30407246       0.45368870 </v>
   <v>      -0.05967194       0.05378747       0.49702375 </v>
   <v>       0.10000724      -0.13303178       0.47138814 </v>
   <v>      -0.21917798       0.00347725      -0.43708849 </v>
   <v>       0.10670315      -0.17481483       0.47243811 </v>
   <v>      -0.19453708       0.01309947      -0.39423000 </v>
   <v>       0.02641952       0.03115971       0.49097641 </v>
   <v>      -0.28185309      -0.02180835       0.45336632 </v>
   <v>       0.04215700      -0.29175349       0.35942723 </v>
   <v>       0.10744419      -0.04519105       0.47273487 </v>
   <v>      -0.27315458       0.00054550      -0.42951100 </v>
   <v>       0.13637078      -0.09402049       0.47258839 </v>
   <v>      -0.14112565       0.09300307      -0.49111250 </v>
   <v>      -0.30624717      -0.03294863       0.41085035 </v>
   <v>       0.00306972      -0.35813212       0.44423134 </v>
   <v>      -0.30542280      -0.01113632      -0.48453918 </v>
   <v>       0.05417600       0.06000829       0.49088473 </v>
   <v>      -0.05405392       0.10685492      -0.49656196 </v>
   <v>      -0.18329406       0.09655308      -0.48779200 </v>
   <v>       0.01430495      -0.37226915      -0.45507918 </v>
   <v>      -0.29131148       0.00751132      -0.38101718 </v>
   <v>       0.13228960       0.00424253       0.47531057 </v>
   <v>       0.00662155      -0.38897228       0.49509186 </v>
   <v>      -0.10466969       0.13187908      -0.48854960 </v>
   <v>      -0.06353874      -0.40881098       0.39624330 </v>
   <v>       0.17858453      -0.09763415       0.47475426 </v>
   <v>       0.10698364       0.05243651       0.48254185 </v>
   <v>       0.04342470       0.11244835       0.49567581 </v>
   <v>      -0.00627991       0.13478941      -0.49728998 </v>
   <v>      -0.35955864      -0.01410224      -0.47430869 </v>
   <v>      -0.11111018       0.17340233      -0.48192415 </v>
   <v>      -0.04356824      -0.44391985       0.37879441 </v>
   <v>      -0.01446338      -0.42999454       0.34223156 </v>
   <v>       0.19102044      -0.02104911       0.36748112 </v>
   <v>       0.19031587       0.00603322       0.46966178 </v>
   <v>       0.00344069      -0.44598638       0.49176348 </v>
   <v>      -0.37476742       0.02644879       0.43823504 </v>
   <v>       0.01533929      -0.41685923      -0.37354773 </v>
   <v>      -0.39069043       0.00530317       0.48203040 </v>
   <v>       0.13101453       0.10324902       0.48181718 </v>
   <v>       0.09241397       0.13969424       0.48996140 </v>
   <v>       0.21500513      -0.00852528       0.40974021 </v>
   <v>      -0.07178371      -0.46884210       0.35234629 </v>
   <v>      -0.01800693      -0.47268088       0.43564586 </v>
   <v>      -0.40672771      -0.01172082       0.36382171 </v>
   <v>      -0.00752791       0.19273338      -0.49048471 </v>
   <v>      -0.04380652       0.20580250       0.41365079 </v>
   <v>       0.08040168      -0.42436272      -0.40158389 </v>
   <v>       0.20304735       0.03461795      -0.43013738 </v>
   <v>       0.04365570      -0.44564982      -0.39159281 </v>
   <v>       0.22168493       0.02273432      -0.47674291 </v>
   <v>       0.02361802      -0.47433363      -0.45279819 </v>
   <v>       0.17250253       0.11038288       0.47490772 </v>
   <v>      -0.02807223       0.22424114       0.45862526 </v>
   <v>       0.02720676       0.19303290      -0.39214747 </v>
   <v>      -0.40606377       0.03725948      -0.39821838 </v>
   <v>       0.09680163       0.18184060       0.49099307 </v>
   <v>      -0.45273404      -0.06160891       0.34752038 </v>
   <v>      -0.44807781       0.00136299       0.48667057 </v>
   <v>       0.01177604       0.21713645      -0.43245360 </v>
   <v>      -0.44866658      -0.02025877       0.36198968 </v>
   <v>       0.05083817      -0.47234032      -0.35000143 </v>
   <v>       0.26909496      -0.00614223       0.40335255 </v>
   <v>      -0.44297541      -0.00961640      -0.35426815 </v>
   <v>      -0.01650096       0.47241850       0.43408121 </v>
   <v>      -0.44600510       0.02391648      -0.38852048 </v>
   <v>      -0.47635133      -0.00990291       0.42738231 </v>
   <v>       0.27600104       0.02379324      -0.48205557 </v>
   <v>      -0.47445788       0.00900655      -0.45184544 </v>
   <v>      -0.46550576       0.00278302       0.32104770 </v>
   <v>       0.28801753      -0.01635907       0.35631974 </v>
   <v>       0.02567278       0.47082806      -0.45489019 </v>
   <v>      -0.08246433       0.44940408       0.37249807 </v>
   <v>      -0.02840103       0.27845089       0.46473950 </v>
   <v>       0.30046976       0.00894708       0.45791015 </v>
   <v>      -0.02359378       0.45807269       0.32742016 </v>
   <v>      -0.03988380       0.44375504       0.37492918 </v>
   <v>       0.00513003       0.44452517       0.48839660 </v>
   <v>       0.01049788       0.27114855      -0.42529441 </v>
   <v>      -0.46689671       0.05477790      -0.36158717 </v>
   <v>       0.29987069       0.03732114      -0.44017384 </v>
   <v>      -0.04516674       0.30236270       0.42511895 </v>
   <v>      -0.00850390       0.30267067      -0.47731869 </v>
   <v>       0.46877606      -0.01406545       0.42900011 </v>
   <v>       0.08791223       0.46122912      -0.38279542 </v>
   <v>       0.05191267       0.44126850      -0.39888824 </v>
   <v>       0.46186761      -0.05983870       0.33868166 </v>
   <v>       0.47063566       0.00485743      -0.45021150 </v>
   <v>       0.02457889       0.28989102      -0.37967781 </v>
   <v>       0.02629662       0.43745586      -0.35489422 </v>
   <v>      -0.03365589       0.40156900       0.37699287 </v>
   <v>       0.35476154       0.01082709       0.44925056 </v>
   <v>       0.44232088      -0.00584855       0.49036602 </v>
   <v>       0.36780036      -0.02807297      -0.46156883 </v>
   <v>       0.44038991      -0.02950698       0.36581864 </v>
   <v>       0.46061176      -0.00816612      -0.34391060 </v>
   <v>       0.00595577       0.38699084       0.48390845 </v>
   <v>       0.06197331       0.40158892      -0.41390543 </v>
   <v>       0.44312332       0.01468006      -0.38457538 </v>
   <v>       0.38485263      -0.00832632       0.49428308 </v>
   <v>       0.43635880       0.00397720       0.33168867 </v>
   <v>       0.02029633       0.37017835       0.43642211 </v>
   <v>      -0.00859320       0.35696453      -0.46806072 </v>
   <v>       0.44658597       0.05605451      -0.36997796 </v>
   <v>       0.40082510      -0.04384183       0.37579849 </v>
   <v>       0.40133474       0.00538080      -0.38599948 </v>
  </varray>
 </structure>
 <varray name="primitive_index" >
  <v type="int" >        1 </v>
  <v type="int" >       79 </v>
  <v type="int" >        2 </v>
  <v type="int" >        4 </v>
  <v type="int" >       80 </v>
  <v type="int" >       69 </v>
  <v type="int" >        3 </v>
  <v type="int" >        5 </v>
  <v type="int" >      110 </v>
  <v type="int" >       33 </v>
  <v type="int" >       55 </v>
  <v type="int" >       81 </v>
  <v type="int" >       20 </v>
  <v type="int" >        6 </v>
  <v type="int" >       34 </v>
  <v type="int" >       56 </v>
  <v type="int" >       21 </v>
  <v type="int" >       93 </v>
  <v type="int" >       78 </v>
  <v type="int" >       70 </v>
  <v type="int" >       24 </v>
  <v type="int" >      109 </v>
  <v type="int" >       17 </v>
  <v type="int" >       36 </v>
  <v type="int" >       35 </v>
  <v type="int" >       72 </v>
  <v type="int" >        9 </v>
  <v type="int" >       49 </v>
  <v type="int" >       83 </v>
  <v type="int" >      116 </v>
  <v type="int" >       82 </v>
  <v type="int" >       23 </v>
  <v type="int" >       77 </v>
  <v type="int" >        7 </v>
  <v type="int" >       50 </v>
  <v type="int" >        8 </v>
  <v type="int" >       18 </v>
  <v type="int" >       94 </v>
  <v type="int" >       75 </v>
  <v type="int" >       22 </v>
  <v type="int" >       71 </v>
  <v type="int" >       16 </v>
  <v type="int" >       89 </v>
  <v type="int" >      123 </v>
  <v type="int" >      115 </v>
  <v type="int" >       10 </v>
  <v type="int" >       62 </v>
  <v type="int" >       19 </v>
  <v type="int" >       98 </v>
  <v type="int" >       84 </v>
  <v type="int" >       11 </v>
  <v type="int" >       12 </v>
  <v type="int" >       15 </v>
  <v type="int" >       76 </v>
  <v type="int" >       90 </v>
  <v type="int" >       41 </v>
  <v type="int" >       99 </v>
  <v type="int" >       85 </v>
  <v type="int" >       29 </v>
  <v type="int" >       57 </v>
  <v type="int" >      108 </v>
  <v type="int" >      120 </v>
  <v type="int" >       48 </v>
  <v type="int" >       14 </v>
  <v type="int" >       13 </v>
  <v type="int" >       30 </v>
  <v type="int" >      100 </v>
  <v type="int" >       39 </v>
  <v type="int" >      102 </v>
  <v type="int" >       25 </v>
  <v type="int" >       91 </v>
  <v type="int" >      122 </v>
  <v type="int" >      111 </v>
  <v type="int" >       61 </v>
  <v type="int" >       54 </v>
  <v type="int" >       58 </v>
  <v type="int" >       87 </v>
  <v type="int" >       28 </v>
  <v type="int" >      113 </v>
  <v type="int" >      126 </v>
  <v type="int" >       88 </v>
  <v type="int" >      103 </v>
  <v type="int" >       43 </v>
  <v type="int" >       51 </v>
  <v type="int" >       46 </v>
  <v type="int" >      121 </v>
  <v type="int" >       31 </v>
  <v type="int" >      125 </v>
  <v type="int" >       38 </v>
  <v type="int" >       66 </v>
  <v type="int" >       44 </v>
  <v type="int" >       53 </v>
  <v type="int" >       65 </v>
  <v type="int" >      104 </v>
  <v type="int" >       86 </v>
  <v type="int" >       59 </v>
  <v type="int" >       96 </v>
  <v type="int" >       27 </v>
  <v type="int" >       32 </v>
  <v type="int" >       97 </v>
  <v type="int" >       40 </v>
  <v type="int" >       37 </v>
  <v type="int" >       52 </v>
  <v type="int" >      124 </v>
  <v type="int" >      112 </v>
  <v type="int" >       92 </v>
  <v type="int" >       26 </v>
  <v type="int" >       45 </v>
  <v type="int" >      117 </v>
  <v type="int" >       60 </v>
  <v type="int" >      107 </v>
  <v type="int" >       64 </v>
  <v type="int" >      114 </v>
  <v type="int" >      118 </v>
  <v type="int" >       95 </v>
  <v type="int" >       74 </v>
  <v type="int" >       63 </v>
  <v type="int" >      130 </v>
  <v type="int" >       47 </v>
  <v type="int" >      128 </v>
  <v type="int" >       42 </v>
  <v type="int" >      119 </v>
  <v type="int" >       67 </v>
  <v type="int" >       68 </v>
  <v type="int" >      106 </v>
  <v type="int" >      101 </v>
  <v type="int" >       73 </v>
  <v type="int" >      129 </v>
  <v type="int" >      105 </v>
  <v type="int" >      127 </v>
 </varray>
 <kpoints>
  <generation param="listgenerated">
   <i name="divisions" type="int">      20 </i>
   <v>       0.00000000       0.00000000       0.00000000 </v>
   <v>       0.50000000      -0.50000000       0.00000000 </v>
   <v>       0.50405463      -0.49593687       0.00000000 </v>
   <v>       0.50000000       0.00000000       0.00000000 </v>
   <v>       0.49594537       0.49593687       0.00000000 </v>
   <v>       0.00000000       0.50000000       0.00000000 </v>
   <v>       0.00000000       0.00000000       0.00000000 </v>
  </generation>
  <varray name="kpointlist" >
   <v>       0.00000000       0.00000000       0.00000000 </v>
   <v>       0.02631579      -0.02631579       0.00000000 </v>
   <v>       0.05263158      -0.05263158       0.00000000 </v>
   <v>       0.07894737      -0.07894737       0.00000000 </v>
   <v>       0.10526316      -0.10526316       0.00000000 </v>
   <v>       0.13157895      -0.13157895       0.00000000 </v>
   <v>       0.15789474      -0.15789474       0.00000000 </v>
   <v>       0.18421053      -0.18421053       0.00000000 </v>
   <v>       0.21052632      -0.21052632       0.00000000 </v>
   <v>       0.23684211      -0.23684211       0.00000000 </v>
   <v>       0.26315789      -0.26315789       0.00000000 </v>
   <v>       0.28947368      -0.28947368       0.00000000 </v>
   <v>       0.31578947      -0.31578947       0.00000000 </v>
   <v>       0.34210526      -0.34210526       0.00000000 </v>
   <v>       0.36842105      -0.36842105       0.00000000 </v>
   <v>       0.39473684      -0.39473684       0.00000000 </v>
   <v>       0.42105263      -0.42105263       0.00000000 </v>
   <v>       0.44736842      -0.44736842       0.00000000 </v>
   <v>       0.47368421      -0.47368421       0.00000000 </v>
   <v>       0.50000000      -0.50000000       0.00000000 </v>
   <v>       0.50000000      -0.50000000       0.00000000 </v>
   <v>       0.50021340      -0.49978615       0.00000000 </v>
   <v>       0.50042680      -0.49957230       0.00000000 </v>
   <v>       0.50064021      -0.49935845       0.00000000 </v>
   <v>       0.50085361      -0.49914460       0.00000000 </v>
   <v>       0.50106701      -0.49893076       0.00000000 </v>
   <v>       0.50128041      -0.49871691       0.00000000 </v>
   <v>       0.50149381      -0.49850306       0.00000000 </v>
   <v>       0.50170721      -0.49828921       0.00000000 </v>
   <v>       0.50192062      -0.49807536       0.00000000 </v>
   <v>       0.50213402      -0.49786151       0.00000000 </v>
   <v>       0.50234742      -0.49764766       0.00000000 </v>
   <v>       0.50256082      -0.49743381       0.00000000 </v>
   <v>       0.50277422      -0.49721997       0.00000000 </v>
   <v>       0.50298762      -0.49700612       0.00000000 </v>
   <v>       0.50320103      -0.49679227       0.00000000 </v>
   <v>       0.50341443      -0.49657842       0.00000000 </v>
   <v>       0.50362783      -0.49636457       0.00000000 </v>
   <v>       0.50384123      -0.49615072       0.00000000 </v>
   <v>       0.50405463      -0.49593687       0.00000000 </v>
   <v>       0.50405463      -0.49593687       0.00000000 </v>
   <v>       0.50384123      -0.46983493       0.00000000 </v>
   <v>       0.50362783      -0.44373299       0.00000000 </v>
   <v>       0.50341443      -0.41763105       0.00000000 </v>
   <v>       0.50320103      -0.39152911       0.00000000 </v>
   <v>       0.50298762      -0.36542717       0.00000000 </v>
   <v>       0.50277422      -0.33932523       0.00000000 </v>
   <v>       0.50256082      -0.31322329       0.00000000 </v>
   <v>       0.50234742      -0.28712135       0.00000000 </v>
   <v>       0.50213402      -0.26101941       0.00000000 </v>
   <v>       0.50192062      -0.23491747       0.00000000 </v>
   <v>       0.50170721      -0.20881553       0.00000000 </v>
   <v>       0.50149381      -0.18271358       0.00000000 </v>
   <v>       0.50128041      -0.15661164       0.00000000 </v>
   <v>       0.50106701      -0.13050970       0.00000000 </v>
   <v>       0.50085361      -0.10440776       0.00000000 </v>
   <v>       0.50064021      -0.07830582       0.00000000 </v>
   <v>       0.50042680      -0.05220388       0.00000000 </v>
   <v>       0.50021340      -0.02610194       0.00000000 </v>
   <v>       0.50000000       0.00000000       0.00000000 </v>
   <v>       0.50000000       0.00000000       0.00000000 </v>
   <v>       0.49978660       0.02610194       0.00000000 </v>
   <v>       0.49957320       0.05220388       0.00000000 </v>
   <v>       0.49935979       0.07830582       0.00000000 </v>
   <v>       0.49914639       0.10440776       0.00000000 </v>
   <v>       0.49893299       0.13050970       0.00000000 </v>
   <v>       0.49871959       0.15661164       0.00000000 </v>
   <v>       0.49850619       0.18271358       0.00000000 </v>
   <v>       0.49829279       0.20881553       0.00000000 </v>
   <v>       0.49807938       0.23491747       0.00000000 </v>
   <v>       0.49786598       0.26101941       0.00000000 </v>
   <v>       0.49765258       0.28712135       0.00000000 </v>
   <v>       0.49743918       0.31322329       0.00000000 </v>
   <v>       0.49722578       0.33932523       0.00000000 </v>
   <v>       0.49701238       0.36542717       0.00000000 </v>
   <v>       0.49679897       0.39152911       0.00000000 </v>
   <v>       0.49658557       0.41763105       0.00000000 </v>
   <v>       0.49637217       0.44373299       0.00000000 </v>
   <v>       0.49615877       0.46983493       0.00000000 </v>
   <v>       0.49594537       0.49593687       0.00000000 </v>
   <v>       0.49594537       0.49593687       0.00000000 </v>
   <v>       0.46984298       0.49615072       0.00000000 </v>
   <v>       0.44374059       0.49636457       0.00000000 </v>
   <v>       0.41763820       0.49657842       0.00000000 </v>
   <v>       0.39153582       0.49679227       0.00000000 </v>
   <v>       0.36543343       0.49700612       0.00000000 </v>
   <v>       0.33933104       0.49721997       0.00000000 </v>
   <v>       0.31322865       0.49743381       0.00000000 </v>
   <v>       0.28712627       0.49764766       0.00000000 </v>
   <v>       0.26102388       0.49786151       0.00000000 </v>
   <v>       0.23492149       0.49807536       0.00000000 </v>
   <v>       0.20881910       0.49828921       0.00000000 </v>
   <v>       0.18271671       0.49850306       0.00000000 </v>
   <v>       0.15661433       0.49871691       0.00000000 </v>
   <v>       0.13051194       0.49893076       0.00000000 </v>
   <v>       0.10440955       0.49914460       0.00000000 </v>
   <v>       0.07830716       0.49935845       0.00000000 </v>
   <v>       0.05220478       0.49957230       0.00000000 </v>
   <v>       0.02610239       0.49978615       0.00000000 </v>
   <v>       0.00000000       0.50000000       0.00000000 </v>
   <v>       0.00000000       0.50000000       0.00000000 </v>
   <v>       0.00000000       0.47368421       0.00000000 </v>
   <v>       0.00000000       0.44736842       0.00000000 </v>
   <v>       0.00000000       0.42105263       0.00000000 </v>
   <v>       0.00000000       0.39473684       0.00000000 </v>
   <v>       0.00000000       0.36842105       0.00000000 </v>
   <v>       0.00000000       0.34210526       0.00000000 </v>
   <v>       0.00000000       0.31578947       0.00000000 </v>
   <v>       0.00000000       0.28947368       0.00000000 </v>
   <v>       0.00000000       0.26315789       0.00000000 </v>
   <v>       0.00000000       0.23684211       0.00000000 </v>
   <v>       0.00000000       0.21052632       0.00000000 </v>
   <v>       0.00000000       0.18421053       0.00000000 </v>
   <v>       0.00000000       0.15789474       0.00000000 </v>
   <v>       0.00000000       0.13157895       0.00000000 </v>
   <v>       0.00000000       0.10526316       0.00000000 </v>
   <v>       0.00000000       0.07894737       0.00000000 </v>
   <v>       0.00000000       0.05263158       0.00000000 </v>
   <v>       0.00000000       0.02631579       0.00000000 </v>
   <v>       0.00000000       0.00000000       0.00000000 </v>
  </varray>
  <varray name="weights" >
   <v>       0.00833333 </v>
   <v>       0.00833333 </v>
   <v>       0.00833333 </v>
   <v>       0.00833333 </v>
   <v>       0.00833333 </v>
   <v>       0.00833333 </v>
   <v>       0.00833333 </v>
   <v>       0.00833333 </v>
   <v>       0.00833333 </v>
   <v>       0.00833333 </v>
   <v>       0.00833333 </v>
   <v>       0.00833333 </v>
   <v>       0.00833333 </v>
   <v>       0.00833333 </v>
   <v>       0.00833333 </v>
   <v>       0.00833333 </v>
   <v>       0.00833333 </v>
   <v>       0.00833333 </v>
   <v>       0.00833333 </v>
   <v>       0.00833333 </v>
   <v>       0.00833333 </v>
   <v>       0.00833333 </v>
   <v>       0.00833333 </v>
   <v>       0.00833333 </v>
   <v>       0.00833333 </v>
   <v>       0.00833333 </v>
   <v>       0.00833333 </v>
   <v>       0.00833333 </v>
   <v>       0.00833333 </v>
   <v>       0.00833333 </v>
   <v>       0.00833333 </v>
   <v>       0.00833333 </v>
   <v>       0.00833333 </v>
   <v>       0.00833333 </v>
   <v>       0.00833333 </v>
   <v>       0.00833333 </v>
   <v>       0.00833333 </v>
   <v>       0.00833333 </v>
   <v>       0.00833333 </v>
   <v>       0.00833333 </v>
   <v>       0.00833333 </v>
   <v>       0.00833333 </v>
   <v>       0.00833333 </v>
   <v>       0.00833333 </v>
   <v>       0.00833333 </v>
   <v>       0.00833333 </v>
   <v>       0.00833333 </v>
   <v>       0.00833333 </v>
   <v>       0.00833333 </v>
   <v>       0.00833333 </v>
   <v>       0.00833333 </v>
   <v>       0.00833333 </v>
   <v>       0.00833333 </v>
   <v>       0.00833333 </v>
   <v>       0.00833333 </v>
   <v>       0.00833333 </v>
   <v>       0.00833333 </v>
   <v>       0.00833333 </v>
   <v>       0.00833333 </v>
   <v>       0.00833333 </v>
   <v>       0.00833333 </v>
   <v>       0.00833333 </v>
   <v>       0.00833333 </v>
   <v>       0.00833333 </v>
   <v>       0.00833333 </v>
   <v>       0.00833333 </v>
   <v>       0.00833333 </v>
   <v>       0.00833333 </v>
   <v>       0.00833333 </v>
   <v>       0.00833333 </v>
   <v>       0.00833333 </v>
   <v>       0.00833333 </v>
   <v>       0.00833333 </v>
   <v>       0.00833333 </v>
   <v>       0.00833333 </v>
   <v>       0.00833333 </v>
   <v>       0.00833333 </v>
   <v>       0.00833333 </v>
   <v>       0.00833333 </v>
   <v>       0.00833333 </v>
   <v>       0.00833333 </v>
   <v>       0.00833333 </v>
   <v>       0.00833333 </v>
   <v>       0.00833333 </v>
   <v>       0.00833333 </v>
   <v>       0.00833333 </v>
   <v>       0.00833333 </v>
   <v>       0.00833333 </v>
   <v>       0.00833333 </v>
   <v>       0.00833333 </v>
   <v>       0.00833333 </v>
   <v>       0.00833333 </v>
   <v>       0.00833333 </v>
   <v>       0.00833333 </v>
   <v>       0.00833333 </v>
   <v>       0.00833333 </v>
   <v>       0.00833333 </v>
   <v>       0.00833333 </v>
   <v>       0.00833333 </v>
   <v>       0.00833333 </v>
   <v>       0.00833333 </v>
   <v>       0.00833333 </v>
   <v>       0.00833333 </v>
   <v>       0.00833333 </v>
   <v>       0.00833333 </v>
   <v>       0.00833333 </v>
   <v>       0.00833333 </v>
   <v>       0.00833333 </v>
   <v>       0.00833333 </v>
   <v>       0.00833333 </v>
   <v>       0.00833333 </v>
   <v>       0.00833333 </v>
   <v>       0.00833333 </v>
   <v>       0.00833333 </v>
   <v>       0.00833333 </v>
   <v>       0.00833333 </v>
   <v>       0.00833333 </v>
   <v>       0.00833333 </v>
   <v>       0.00833333 </v>
   <v>       0.00833333 </v>
  </varray>
 </kpoints>
 <parameters>
  <separator name="general" >
   <i type="string" name="SYSTEM">Simulation for cell shape cell volume r</i>
   <i type="logical" name="LCOMPAT"> F  </i>
  </separator>
  <separator name="electronic" >
   <i type="string" name="PREC">high</i>
   <i name="ENMAX">    500.00000000</i>
   <i name="ENAUG">    644.87300000</i>
   <i name="EDIFF">      0.00001000</i>
   <i type="int" name="IALGO">    38</i>
   <i type="int" name="IWAVPR">    10</i>
   <i type="int" name="NBANDS">   256</i>
   <i name="NELECT">    366.00000000</i>
   <i type="int" name="TURBO">     0</i>
   <i type="int" name="IRESTART">     0</i>
   <i type="int" name="NREBOOT">     0</i>
   <i type="int" name="NMIN">     0</i>
   <i name="EREF">      0.00000000</i>
   <separator name="electronic smearing" >
    <i type="int" name="ISMEAR">     0</i>
    <i name="SIGMA">      0.01000000</i>
    <i name="KSPACING">      0.50000000</i>
    <i type="logical" name="KGAMMA"> T  </i>
   </separator>
   <separator name="electronic projectors" >
    <i type="logical" name="LREAL"> T  </i>
    <v name="ROPT">     -0.00040000     -0.00040000     -0.00040000</v>
    <i type="int" name="LMAXPAW">  -100</i>
    <i type="int" name="LMAXMIX">     2</i>
    <i type="logical" name="NLSPLINE"> F  </i>
   </separator>
   <separator name="electronic startup" >
    <i type="int" name="ISTART">     1</i>
    <i type="int" name="ICHARG">    11</i>
    <i type="int" name="INIWAV">     1</i>
   </separator>
   <separator name="electronic spin" >
    <i type="int" name="ISPIN">     1</i>
    <i type="logical" name="LNONCOLLINEAR"> F  </i>
    <v name="MAGMOM">      1.00000000      1.00000000      1.00000000      1.00000000      1.00000000      1.00000000      1.00000000      1.00000000      1.00000000      1.00000000      1.00000000      1.00000000      1.00000000      1.00000000      1.00000000      1.00000000      1.00000000      1.00000000      1.00000000      1.00000000
      1.00000000      1.00000000      1.00000000      1.00000000      1.00000000      1.00000000      1.00000000      1.00000000      1.00000000      1.00000000      1.00000000      1.00000000      1.00000000      1.00000000      1.00000000      1.00000000      1.00000000      1.00000000      1.00000000      1.00000000
      1.00000000      1.00000000      1.00000000      1.00000000      1.00000000      1.00000000      1.00000000      1.00000000      1.00000000      1.00000000      1.00000000      1.00000000      1.00000000      1.00000000      1.00000000      1.00000000      1.00000000      1.00000000      1.00000000      1.00000000
      1.00000000      1.00000000      1.00000000      1.00000000      1.00000000      1.00000000      1.00000000      1.00000000      1.00000000      1.00000000      1.00000000      1.00000000      1.00000000      1.00000000      1.00000000      1.00000000      1.00000000      1.00000000      1.00000000      1.00000000
      1.00000000      1.00000000      1.00000000      1.00000000      1.00000000      1.00000000      1.00000000      1.00000000      1.00000000      1.00000000      1.00000000      1.00000000      1.00000000      1.00000000      1.00000000      1.00000000      1.00000000      1.00000000      1.00000000      1.00000000
      1.00000000      1.00000000      1.00000000      1.00000000      1.00000000      1.00000000      1.00000000      1.00000000      1.00000000      1.00000000      1.00000000      1.00000000      1.00000000      1.00000000      1.00000000      1.00000000      1.00000000      1.00000000      1.00000000      1.00000000
      1.00000000      1.00000000      1.00000000      1.00000000      1.00000000      1.00000000      1.00000000      1.00000000      1.00000000      1.00000000</v>
    <i name="NUPDOWN">     -1.00000000</i>
    <i type="logical" name="LSORBIT"> F  </i>
    <v name="SAXIS">      0.00000000      0.00000000      1.00000000</v>
    <i type="logical" name="LSPIRAL"> F  </i>
    <v name="QSPIRAL">      0.00000000      0.00000000      0.00000000</v>
    <i type="logical" name="LZEROZ"> F  </i>
   </separator>
   <separator name="electronic exchange-correlation" >
    <i type="logical" name="LASPH"> F  </i>
    <i type="logical" name="LMETAGGA"> F  </i>
   </separator>
   <separator name="electronic convergence" >
    <i type="int" name="NELM">   200</i>
    <i type="int" name="NELMDL">     0</i>
    <i type="int" name="NELMIN">     2</i>
    <i name="ENINI">    500.00000000</i>
    <separator name="electronic convergence detail" >
     <i type="logical" name="LDIAG"> T  </i>
     <i type="logical" name="LSUBROT"> F  </i>
     <i name="WEIMIN">      0.00000000</i>
     <i name="EBREAK">      0.00000001</i>
     <i name="DEPER">      0.30000000</i>
     <i type="int" name="NRMM">     4</i>
     <i name="TIME">      0.40000000</i>
    </separator>
   </separator>
   <separator name="electronic mixer" >
    <i name="AMIX">      0.40000000</i>
    <i name="BMIX">      1.00000000</i>
    <i name="AMIN">      0.10000000</i>
    <i name="AMIX_MAG">      1.60000000</i>
    <i name="BMIX_MAG">      1.00000000</i>
    <separator name="electronic mixer details" >
     <i type="int" name="IMIX">     4</i>
     <i type="logical" name="MIXFIRST"> F  </i>
     <i type="int" name="MAXMIX">   -45</i>
     <i name="WC">    100.00000000</i>
     <i type="int" name="INIMIX">     1</i>
     <i type="int" name="MIXPRE">     1</i>
     <i type="int" name="MREMOVE">     5</i>
    </separator>
   </separator>
   <separator name="electronic dipolcorrection" >
    <i type="logical" name="LDIPOL"> F  </i>
    <i type="logical" name="LMONO"> F  </i>
    <i type="int" name="IDIPOL">     0</i>
    <i name="EPSILON">      1.00000000</i>
    <v name="DIPOL">   -100.00000000   -100.00000000   -100.00000000</v>
    <i name="EFIELD">      0.00000000</i>
   </separator>
  </separator>
  <separator name="grids" >
   <i type="int" name="NGX">   192</i>
   <i type="int" name="NGY">   192</i>
   <i type="int" name="NGZ">   150</i>
   <i type="int" name="NGXF">   288</i>
   <i type="int" name="NGYF">   288</i>
   <i type="int" name="NGZF">   224</i>
   <i type="logical" name="ADDGRID"> F  </i>
  </separator>
  <separator name="ionic" >
   <i type="int" name="NSW">     0</i>
   <i type="int" name="IBRION">    -1</i>
   <i type="int" name="MDALGO">     0</i>
   <i type="int" name="ISIF">     2</i>
   <i name="PSTRESS">      0.00000000</i>
   <i name="EDIFFG">     -0.01000000</i>
   <i type="int" name="NFREE">     0</i>
   <i name="POTIM">      0.30000000</i>
   <i name="SMASS">     -3.00000000</i>
   <i name="SCALEE">      1.00000000</i>
  </separator>
  <separator name="ionic md" >
   <i name="TEBEG">      0.00010000</i>
   <i name="TEEND">      0.00010000</i>
   <i type="int" name="NBLOCK">     1</i>
   <i type="int" name="KBLOCK">     1</i>
   <i type="int" name="NPACO">   256</i>
   <i name="APACO">     16.00000000</i>
  </separator>
  <separator name="symmetry" >
   <i type="int" name="ISYM">     2</i>
   <i name="SYMPREC">      0.00001000</i>
  </separator>
  <separator name="dos" >
   <i type="int" name="LORBIT">     0</i>
   <v name="RWIGS">     -1.00000000     -1.00000000     -1.00000000</v>
   <i type="int" name="NEDOS">   301</i>
   <i name="EMIN">     10.00000000</i>
   <i name="EMAX">    -10.00000000</i>
   <i name="EFERMI">      0.00000000</i>
  </separator>
  <separator name="writing" >
   <i type="int" name="NWRITE">     0</i>
   <i type="logical" name="LWAVE"> F  </i>
   <i type="logical" name="LDOWNSAMPLE"> F  </i>
   <i type="logical" name="LCHARG"> F  </i>
   <i type="logical" name="LPARD"> F  </i>
   <i type="logical" name="LVTOT"> F  </i>
   <i type="logical" name="LVHAR"> F  </i>
   <i type="logical" name="LELF"> F  </i>
   <i type="logical" name="LOPTICS"> F  </i>
   <v name="STM">      0.00000000      0.00000000      0.00000000      0.00000000      0.00000000      0.00000000      0.00000000</v>
  </separator>
  <separator name="performance" >
   <i type="int" name="NPAR">    16</i>
   <i type="int" name="NSIM">     4</i>
   <i type="int" name="NBLK">    -1</i>
   <i type="logical" name="LPLANE"> T  </i>
   <i type="logical" name="LSCALAPACK"> T  </i>
   <i type="logical" name="LSCAAWARE"> F  </i>
   <i type="logical" name="LSCALU"> F  </i>
   <i type="logical" name="LASYNC"> F  </i>
   <i type="logical" name="LORBITALREAL"> F  </i>
  </separator>
  <separator name="miscellaneous" >
   <i type="int" name="IDIOT">     3</i>
   <i type="int" name="ISPECIAL">     0</i>
   <i type="logical" name="LMUSIC"> F  </i>
   <v name="POMASS">     12.01100000     14.00100000      1.00000000</v>
   <v name="DARWINR">      0.00000000      0.00000000      0.00000000</v>
   <v name="DARWINV">      1.00000000      1.00000000      1.00000000</v>
   <i type="logical" name="LCORR"> T  </i>
  </separator>
  <i type="logical" name="GGA_COMPAT"> T  </i>
  <i type="logical" name="LBERRY"> F  </i>
  <i type="int" name="ICORELEVEL">     0</i>
  <i type="logical" name="LDAU"> F  </i>
  <i type="int" name="I_CONSTRAINED_M">     0</i>
  <separator name="electronic exchange-correlation" >
   <i type="string" name="GGA">PE</i>
   <i type="int" name="VOSKOWN">     0</i>
   <i type="logical" name="LHFCALC"> F  </i>
   <i type="string" name="PRECFOCK"></i>
   <i type="logical" name="LSYMGRAD"> F  </i>
   <i type="logical" name="LHFONE"> F  </i>
   <i type="logical" name="LRHFCALC"> F  </i>
   <i type="logical" name="LTHOMAS"> F  </i>
   <i type="logical" name="LMODELHF"> F  </i>
   <i name="ENCUT4O">     -1.00000000</i>
   <i type="int" name="EXXOEP">     0</i>
   <i type="int" name="FOURORBIT">     0</i>
   <i name="AEXX">      0.00000000</i>
   <i name="HFALPHA">      0.00000000</i>
   <i name="MCALPHA">      0.00000000</i>
   <i name="ALDAX">      1.00000000</i>
   <i name="AGGAX">      1.00000000</i>
   <i name="ALDAC">      1.00000000</i>
   <i name="AGGAC">      1.00000000</i>
   <i type="int" name="NKREDX">     1</i>
   <i type="int" name="NKREDY">     1</i>
   <i type="int" name="NKREDZ">     1</i>
   <i type="logical" name="SHIFTRED"> F  </i>
   <i type="logical" name="ODDONLY"> F  </i>
   <i type="logical" name="EVENONLY"> F  </i>
   <i type="int" name="LMAXFOCK">     0</i>
   <i type="int" name="NMAXFOCKAE">     0</i>
   <i type="logical" name="LFOCKAEDFT"> F  </i>
   <i name="HFSCREEN">      0.00000000</i>
   <i name="HFSCREENC">      0.00000000</i>
   <i type="int" name="NBANDSGWLOW">     0</i>
  </separator>
  <separator name="vdW DFT" >
   <i type="logical" name="LUSE_VDW"> F  </i>
   <i name="Zab_VDW">     -0.84910000</i>
   <i name="PARAM1">      0.12340000</i>
   <i name="PARAM2">      1.00000000</i>
   <i name="PARAM3">      0.00000000</i>
  </separator>
  <separator name="model GW" >
   <i type="int" name="MODEL_GW">     0</i>
   <i name="MODEL_EPS0">     60.48360515</i>
   <i name="MODEL_ALPHA">      1.00000000</i>
  </separator>
  <separator name="linear response parameters" >
   <i type="logical" name="LEPSILON"> F  </i>
   <i type="logical" name="LRPA"> F  </i>
   <i type="logical" name="LNABLA"> F  </i>
   <i type="logical" name="LVEL"> F  </i>
   <i type="int" name="KINTER">     0</i>
   <i name="CSHIFT">      0.10000000</i>
   <i name="OMEGAMAX">     -1.00000000</i>
   <i name="DEG_THRESHOLD">      0.00200000</i>
   <i name="RTIME">     -0.10000000</i>
   <i name="WPLASMAI">      0.00000000</i>
   <v name="DFIELD">      0.00000000      0.00000000      0.00000000</v>
   <v name="WPLASMA">      0.00000000      0.00000000      0.00000000      0.00000000      0.00000000      0.00000000      0.00000000      0.00000000      0.00000000</v>
  </separator>
  <separator name="orbital magnetization" >
   <i type="logical" name="NUCIND"> F  </i>
   <v name="MAGPOS">      0.00000000      0.00000000      0.00000000</v>
   <i type="logical" name="LNICSALL"> T  </i>
   <i type="logical" name="ORBITALMAG"> F  </i>
   <i type="logical" name="LMAGBLOCH"> F  </i>
   <i type="logical" name="LCHIMAG"> F  </i>
   <i type="logical" name="LGAUGE"> T  </i>
   <i type="int" name="MAGATOM">     0</i>
   <v name="MAGDIPOL">      0.00000000      0.00000000      0.00000000</v>
   <v name="AVECCONST">      0.00000000      0.00000000      0.00000000</v>
  </separator>
  <separator name="response functions" >
   <i type="logical" name="LADDER"> F  </i>
   <i type="logical" name="LRPAFORCE"> F  </i>
   <i type="logical" name="LFXC"> F  </i>
   <i type="logical" name="LHARTREE"> T  </i>
   <i type="int" name="IBSE">     0</i>
   <v type="int" name="KPOINT">    -1     0     0     0</v>
   <i type="logical" name="LTCTE"> F  </i>
   <i type="logical" name="LTETE"> F  </i>
   <i type="logical" name="LTRIPLET"> F  </i>
   <i type="logical" name="LFXCEPS"> F  </i>
   <i type="logical" name="LFXHEG"> F  </i>
   <i type="int" name="NATURALO">     2</i>
   <i type="logical" name="L2ORDER"> F  </i>
   <i type="logical" name="LMP2LT"> F  </i>
   <i type="logical" name="LUSEW"> F  </i>
   <i name="ENCUTGW">     -2.00000000</i>
   <i name="ENCUTGWSOFT">     -2.00000000</i>
   <i name="ENCUTLF">     -1.00000000</i>
   <i type="int" name="LMAXMP2">    -1</i>
   <i name="SCISSOR">      0.00000000</i>
   <i type="int" name="NOMEGA">     0</i>
   <i type="int" name="NOMEGAR">     0</i>
   <i type="int" name="NBANDSGW">    -1</i>
   <i type="int" name="NBANDSO">    -1</i>
   <i type="int" name="NBANDSV">    -1</i>
   <i type="int" name="NELM">   200</i>
   <i type="int" name="NELMHF">     1</i>
   <i type="int" name="DIM">     3</i>
   <i type="int" name="ANTIRES">     0</i>
   <i name="OMEGAMAX">    -30.00000000</i>
   <i name="OMEGAMIN">    -30.00000000</i>
   <i name="OMEGATL">   -200.00000000</i>
   <i type="int" name="OMEGAGRID">   140</i>
   <i name="CSHIFT">     -0.10000000</i>
   <i type="logical" name="SELFENERGY"> F  </i>
   <i type="logical" name="LSPECTRAL"> F  </i>
   <i type="logical" name="LSPECTRALGW"> F  </i>
   <i type="logical" name="LSINGLES"> F  </i>
   <i type="logical" name="LFERMIGW"> F  </i>
   <i type="logical" name="ODDONLYGW"> F  </i>
   <i type="logical" name="EVENONLYGW"> F  </i>
   <i type="int" name="NKREDLFX">     1</i>
   <i type="int" name="NKREDLFY">     1</i>
   <i type="int" name="NKREDLFZ">     1</i>
   <i type="int" name="MAXMEM">  2800</i>
   <i type="int" name="TELESCOPE">     0</i>
   <i type="int" name="TAUPAR">     1</i>
   <i type="int" name="OMEGAPAR">    -1</i>
   <i name="LAMBDA">      1.00000000</i>
  </separator>
  <separator name="External order field" >
   <i name="OFIELD_KAPPA">      0.00000000</i>
   <v name="OFIELD_K">      0.00000000      0.00000000      0.00000000</v>
   <i name="OFIELD_Q6_NEAR">      0.00000000</i>
   <i name="OFIELD_Q6_FAR">      0.00000000</i>
   <i name="OFIELD_A">      0.00000000</i>
  </separator>
  <separator name="solvation model" >
   <i type="logical" name="LSOL"> F  </i>
  </separator>
 </parameters>
 <atominfo>
  <atoms>     130 </atoms>
  <types>       3 </types>
  <array name="atoms" >
   <dimension dim="1">ion</dimension>
   <field type="string">element</field>
   <field type="int">atomtype</field>
   <set>
    <rc><c>C </c><c>   1</c></rc>
    <rc><c>C </c><c>   1</c></rc>
    <rc><c>C </c><c>   1</c></rc>
    <rc><c>C </c><c>   1</c></rc>
    <rc><c>C </c><c>   1</c></rc>
    <rc><c>C </c><c>   1</c></rc>
    <rc><c>C </c><c>   1</c></rc>
    <rc><c>C </c><c>   1</c></rc>
    <rc><c>C </c><c>   1</c></rc>
    <rc><c>C </c><c>   1</c></rc>
    <rc><c>C </c><c>   1</c></rc>
    <rc><c>C </c><c>   1</c></rc>
    <rc><c>C </c><c>   1</c></rc>
    <rc><c>C </c><c>   1</c></rc>
    <rc><c>C </c><c>   1</c></rc>
    <rc><c>C </c><c>   1</c></rc>
    <rc><c>C </c><c>   1</c></rc>
    <rc><c>C </c><c>   1</c></rc>
    <rc><c>C </c><c>   1</c></rc>
    <rc><c>C </c><c>   1</c></rc>
    <rc><c>C </c><c>   1</c></rc>
    <rc><c>C </c><c>   1</c></rc>
    <rc><c>C </c><c>   1</c></rc>
    <rc><c>C </c><c>   1</c></rc>
    <rc><c>C </c><c>   1</c></rc>
    <rc><c>C </c><c>   1</c></rc>
    <rc><c>C </c><c>   1</c></rc>
    <rc><c>C </c><c>   1</c></rc>
    <rc><c>C </c><c>   1</c></rc>
    <rc><c>C </c><c>   1</c></rc>
    <rc><c>C </c><c>   1</c></rc>
    <rc><c>C </c><c>   1</c></rc>
    <rc><c>C </c><c>   1</c></rc>
    <rc><c>C </c><c>   1</c></rc>
    <rc><c>C </c><c>   1</c></rc>
    <rc><c>C </c><c>   1</c></rc>
    <rc><c>C </c><c>   1</c></rc>
    <rc><c>C </c><c>   1</c></rc>
    <rc><c>C </c><c>   1</c></rc>
    <rc><c>C </c><c>   1</c></rc>
    <rc><c>C </c><c>   1</c></rc>
    <rc><c>C </c><c>   1</c></rc>
    <rc><c>C </c><c>   1</c></rc>
    <rc><c>C </c><c>   1</c></rc>
    <rc><c>C </c><c>   1</c></rc>
    <rc><c>C </c><c>   1</c></rc>
    <rc><c>C </c><c>   1</c></rc>
    <rc><c>C </c><c>   1</c></rc>
    <rc><c>C </c><c>   1</c></rc>
    <rc><c>C </c><c>   1</c></rc>
    <rc><c>C </c><c>   1</c></rc>
    <rc><c>C </c><c>   1</c></rc>
    <rc><c>C </c><c>   1</c></rc>
    <rc><c>C </c><c>   1</c></rc>
    <rc><c>C </c><c>   1</c></rc>
    <rc><c>C </c><c>   1</c></rc>
    <rc><c>C </c><c>   1</c></rc>
    <rc><c>C </c><c>   1</c></rc>
    <rc><c>C </c><c>   1</c></rc>
    <rc><c>C </c><c>   1</c></rc>
    <rc><c>C </c><c>   1</c></rc>
    <rc><c>C </c><c>   1</c></rc>
    <rc><c>C </c><c>   1</c></rc>
    <rc><c>C </c><c>   1</c></rc>
    <rc><c>C </c><c>   1</c></rc>
    <rc><c>C </c><c>   1</c></rc>
    <rc><c>C </c><c>   1</c></rc>
    <rc><c>C </c><c>   1</c></rc>
    <rc><c>N </c><c>   2</c></rc>
    <rc><c>N </c><c>   2</c></rc>
    <rc><c>N </c><c>   2</c></rc>
    <rc><c>N </c><c>   2</c></rc>
    <rc><c>N </c><c>   2</c></rc>
    <rc><c>N </c><c>   2</c></rc>
    <rc><c>N </c><c>   2</c></rc>
    <rc><c>N </c><c>   2</c></rc>
    <rc><c>H </c><c>   3</c></rc>
    <rc><c>H </c><c>   3</c></rc>
    <rc><c>H </c><c>   3</c></rc>
    <rc><c>H </c><c>   3</c></rc>
    <rc><c>H </c><c>   3</c></rc>
    <rc><c>H </c><c>   3</c></rc>
    <rc><c>H </c><c>   3</c></rc>
    <rc><c>H </c><c>   3</c></rc>
    <rc><c>H </c><c>   3</c></rc>
    <rc><c>H </c><c>   3</c></rc>
    <rc><c>H </c><c>   3</c></rc>
    <rc><c>H </c><c>   3</c></rc>
    <rc><c>H </c><c>   3</c></rc>
    <rc><c>H </c><c>   3</c></rc>
    <rc><c>H </c><c>   3</c></rc>
    <rc><c>H </c><c>   3</c></rc>
    <rc><c>H </c><c>   3</c></rc>
    <rc><c>H </c><c>   3</c></rc>
    <rc><c>H </c><c>   3</c></rc>
    <rc><c>H </c><c>   3</c></rc>
    <rc><c>H </c><c>   3</c></rc>
    <rc><c>H </c><c>   3</c></rc>
    <rc><c>H </c><c>   3</c></rc>
    <rc><c>H </c><c>   3</c></rc>
    <rc><c>H </c><c>   3</c></rc>
    <rc><c>H </c><c>   3</c></rc>
    <rc><c>H </c><c>   3</c></rc>
    <rc><c>H </c><c>   3</c></rc>
    <rc><c>H </c><c>   3</c></rc>
    <rc><c>H </c><c>   3</c></rc>
    <rc><c>H </c><c>   3</c></rc>
    <rc><c>H </c><c>   3</c></rc>
    <rc><c>H </c><c>   3</c></rc>
    <rc><c>H </c><c>   3</c></rc>
    <rc><c>H </c><c>   3</c></rc>
    <rc><c>H </c><c>   3</c></rc>
    <rc><c>H </c><c>   3</c></rc>
    <rc><c>H </c><c>   3</c></rc>
    <rc><c>H </c><c>   3</c></rc>
    <rc><c>H </c><c>   3</c></rc>
    <rc><c>H </c><c>   3</c></rc>
    <rc><c>H </c><c>   3</c></rc>
    <rc><c>H </c><c>   3</c></rc>
    <rc><c>H </c><c>   3</c></rc>
    <rc><c>H </c><c>   3</c></rc>
    <rc><c>H </c><c>   3</c></rc>
    <rc><c>H </c><c>   3</c></rc>
    <rc><c>H </c><c>   3</c></rc>
    <rc><c>H </c><c>   3</c></rc>
    <rc><c>H </c><c>   3</c></rc>
    <rc><c>H </c><c>   3</c></rc>
    <rc><c>H </c><c>   3</c></rc>
    <rc><c>H </c><c>   3</c></rc>
    <rc><c>H </c><c>   3</c></rc>
   </set>
  </array>
  <array name="atomtypes" >
   <dimension dim="1">type</dimension>
   <field type="int">atomspertype</field>
   <field type="string">element</field>
   <field>mass</field>
   <field>valence</field>
   <field type="string">pseudopotential</field>
   <set>
    <rc><c>  68</c><c>C </c><c>     12.01100000</c><c>      4.00000000</c><c>  PAW_PBE C 08Apr2002                   </c></rc>
    <rc><c>   8</c><c>N </c><c>     14.00100000</c><c>      5.00000000</c><c>  PAW_PBE N 08Apr2002                   </c></rc>
    <rc><c>  54</c><c>H </c><c>      1.00000000</c><c>      1.00000000</c><c>  PAW_PBE H 15Jun2001                   </c></rc>
   </set>
  </array>
 </atominfo>
 <structure name="initialpos" >
  <crystal>
   <varray name="basis" >
    <v>      25.58459808      -0.09774049       0.00000000 </v>
    <v>      -0.11176803      25.61111095       0.00000000 </v>
    <v>       0.00000000       0.00000000      20.00000000 </v>
   </varray>
   <i name="volume">  13104.78111519 </i>
   <varray name="rec_basis" >
    <v>       0.03908667       0.00017058       0.00000000 </v>
    <v>       0.00014917       0.03904620       0.00000000 </v>
    <v>       0.00000000       0.00000000       0.05000000 </v>
   </varray>
  </crystal>
  <varray name="positions" >
   <v>       0.90180099       0.86048732       0.46993807 </v>
   <v>       0.86327867       0.89697833       0.47805554 </v>
   <v>       0.88781821       0.94731108       0.48417825 </v>
   <v>       0.95138243       0.88701183       0.47232680 </v>
   <v>       0.00126081       0.86431558       0.46878917 </v>
   <v>       0.04914646       0.89227954       0.47017646 </v>
   <v>       0.10744419       0.95480895       0.47273487 </v>
   <v>       0.13637078       0.90597951       0.47258839 </v>
   <v>       0.10000724       0.86696822       0.47138814 </v>
   <v>       0.13228960       0.00424253       0.47531057 </v>
   <v>       0.10698364       0.05243651       0.48254185 </v>
   <v>       0.04342470       0.11244835       0.49567581 </v>
   <v>       0.09241397       0.13969424       0.48996140 </v>
   <v>       0.13101453       0.10324902       0.48181718 </v>
   <v>       0.99372009       0.13478941       0.50271002 </v>
   <v>       0.94594608       0.10685492       0.50343804 </v>
   <v>       0.88756334       0.04446323       0.50018430 </v>
   <v>       0.85887435       0.09300307       0.50888750 </v>
   <v>       0.89533031       0.13187908       0.51145040 </v>
   <v>       0.86262284       0.99527024       0.49435369 </v>
   <v>       0.80457975       0.99322281       0.50092235 </v>
   <v>       0.69457720       0.98886368       0.51546082 </v>
   <v>       0.71814691       0.97819165       0.45336632 </v>
   <v>       0.77235754       0.98015024       0.44654820 </v>
   <v>       0.99247209       0.19273338       0.50951529 </v>
   <v>       0.99149610       0.30267067       0.52268131 </v>
   <v>       0.97159897       0.27845089       0.46473950 </v>
   <v>       0.97192777       0.22424114       0.45862526 </v>
   <v>       0.19031587       0.00603322       0.46966178 </v>
   <v>       0.21500513       0.99147472       0.40974021 </v>
   <v>       0.26909496       0.99385777       0.40335255 </v>
   <v>       0.30046976       0.00894708       0.45791015 </v>
   <v>       0.00281750       0.80639160       0.46403529 </v>
   <v>       0.02553041       0.78151919       0.40855635 </v>
   <v>       0.00340589       0.69592754       0.45368870 </v>
   <v>       0.02539125       0.72739303       0.40307235 </v>
   <v>       0.00513003       0.44452517       0.48839660 </v>
   <v>       0.98349904       0.47241850       0.43408121 </v>
   <v>       0.98199307       0.52731912       0.43564586 </v>
   <v>       0.96011620       0.44375504       0.37492918 </v>
   <v>       0.95643176       0.55608015       0.37879441 </v>
   <v>       0.00595577       0.38699084       0.48390845 </v>
   <v>       0.55192219       0.00136299       0.48667057 </v>
   <v>       0.52364867       0.99009709       0.42738231 </v>
   <v>       0.46877606       0.98593455       0.42900011 </v>
   <v>       0.55133342       0.97974123       0.36198968 </v>
   <v>       0.44038991       0.97049302       0.36581864 </v>
   <v>       0.60930957       0.00530317       0.48203040 </v>
   <v>       0.78082202       0.00347725       0.56291151 </v>
   <v>       0.72684542       0.00054550       0.57048900 </v>
   <v>       0.01177604       0.21713645       0.56754640 </v>
   <v>       0.01049788       0.27114855       0.57470559 </v>
   <v>       0.27600104       0.02379324       0.51794443 </v>
   <v>       0.22168493       0.02273432       0.52325709 </v>
   <v>       0.98040140       0.77487994       0.51415910 </v>
   <v>       0.98048035       0.72067997       0.50929065 </v>
   <v>       0.00344069       0.55401362       0.49176348 </v>
   <v>       0.02361802       0.52566637       0.54720181 </v>
   <v>       0.02567278       0.47082806       0.54510981 </v>
   <v>       0.05191267       0.44126850       0.60111176 </v>
   <v>       0.04365570       0.55435018       0.60840719 </v>
   <v>       0.00662155       0.61102772       0.49509186 </v>
   <v>       0.44232088       0.99415145       0.49036602 </v>
   <v>       0.47063566       0.00485743       0.54978850 </v>
   <v>       0.52554212       0.00900655       0.54815456 </v>
   <v>       0.55399490       0.02391648       0.61147952 </v>
   <v>       0.44312332       0.01468006       0.61542462 </v>
   <v>       0.38485263       0.99167368       0.49428308 </v>
   <v>       0.94088957       0.93931326       0.47995876 </v>
   <v>       0.05459446       0.94557325       0.47187580 </v>
   <v>       0.05417600       0.06000829       0.49088473 </v>
   <v>       0.94032806       0.05378747       0.49702375 </v>
   <v>       0.99140680       0.35696453       0.53193928 </v>
   <v>       0.35476154       0.01082709       0.44925056 </v>
   <v>       0.00306972       0.64186788       0.44423134 </v>
   <v>       0.64044136       0.98589776       0.52569131 </v>
   <v>       0.04215700       0.70824651       0.35942723 </v>
   <v>       0.04254748       0.80536620       0.36879826 </v>
   <v>       0.89676036       0.81878072       0.46297078 </v>
   <v>       0.82142531       0.89012550       0.47978372 </v>
   <v>       0.96880279       0.96796415       0.48220921 </v>
   <v>       0.02641952       0.03115971       0.49097641 </v>
   <v>       0.10670315       0.82518517       0.47243811 </v>
   <v>       0.17858453       0.90236585       0.47475426 </v>
   <v>       0.19102044       0.97895089       0.36748112 </v>
   <v>       0.28801753       0.98364093       0.35631974 </v>
   <v>       0.17250253       0.11038288       0.47490772 </v>
   <v>       0.09680163       0.18184060       0.49099307 </v>
   <v>       0.81670594       0.09655308       0.51220800 </v>
   <v>       0.88888982       0.17340233       0.51807585 </v>
   <v>       0.95619348       0.20580250       0.41365079 </v>
   <v>       0.95483326       0.30236270       0.42511895 </v>
   <v>       0.79019559       0.97150768       0.39826636 </v>
   <v>       0.69375283       0.96705137       0.41085035 </v>
   <v>       0.96634411       0.40156900       0.37699287 </v>
   <v>       0.91753567       0.44940408       0.37249807 </v>
   <v>       0.97640622       0.45807269       0.32742016 </v>
   <v>       0.93646126       0.59118902       0.39624330 </v>
   <v>       0.98553662       0.57000546       0.34223156 </v>
   <v>       0.92821629       0.53115790       0.35234629 </v>
   <v>       0.02029633       0.37017835       0.43642211 </v>
   <v>       0.59327229       0.98827918       0.36382171 </v>
   <v>       0.54726596       0.93839109       0.34752038 </v>
   <v>       0.53449424       0.00278302       0.32104770 </v>
   <v>       0.40082510       0.95615817       0.37579849 </v>
   <v>       0.43635880       0.00397720       0.33168867 </v>
   <v>       0.46186761       0.94016130       0.33868166 </v>
   <v>       0.62523258       0.02644879       0.43823504 </v>
   <v>       0.96146103       0.69719734       0.54793513 </v>
   <v>       0.96248685       0.79350284       0.55745029 </v>
   <v>       0.20304735       0.03461795       0.56986262 </v>
   <v>       0.29987069       0.03732114       0.55982616 </v>
   <v>       0.02720676       0.19303290       0.60785253 </v>
   <v>       0.02457889       0.28989102       0.62032219 </v>
   <v>       0.70868852       0.00751132       0.61898282 </v>
   <v>       0.80546292       0.01309947       0.60577000 </v>
   <v>       0.08791223       0.46122912       0.61720458 </v>
   <v>       0.02629662       0.43745586       0.64510578 </v>
   <v>       0.06197331       0.40158892       0.58609457 </v>
   <v>       0.01533929       0.58314077       0.62645227 </v>
   <v>       0.05083817       0.52765968       0.64999857 </v>
   <v>       0.08040168       0.57563728       0.59841611 </v>
   <v>       0.01430495       0.62773085       0.54492082 </v>
   <v>       0.53310329       0.05477790       0.63841283 </v>
   <v>       0.55702459       0.99038360       0.64573185 </v>
   <v>       0.59393623       0.03725948       0.60178162 </v>
   <v>       0.40133474       0.00538080       0.61400052 </v>
   <v>       0.46061176       0.99183388       0.65608940 </v>
   <v>       0.44658597       0.05605451       0.63002204 </v>
   <v>       0.36780036       0.97192703       0.53843117 </v>
  </varray>
 </structure>
 <calculation>
  <scstep>
   <time name="dav"> 1005.97 1017.97</time>
   <time name="total"> 1006.18 1018.18</time>
   <energy>
    <i name="alphaZ">     47.49116539 </i>
    <i name="ewald">  45817.56682406 </i>
    <i name="hartreedc"> -56325.03848633 </i>
    <i name="XCdc">   1244.25893786 </i>
    <i name="pawpsdc">  32634.88213106 </i>
    <i name="pawaedc"> -32694.02256157 </i>
    <i name="eentropy">     -0.00000000 </i>
    <i name="bandstr">  -4395.56233331 </i>
    <i name="atom">  12796.63868281 </i>
    <i name="e_fr_energy">   -873.78564002 </i>
    <i name="e_wo_entrp">   -873.78564002 </i>
    <i name="e_0_energy">   -873.78564002 </i>
   </energy>
  </scstep>
  <scstep>
   <time name="dav"> 1161.05 1175.03</time>
   <time name="total"> 1161.06 1175.03</time>
   <energy>
    <i name="e_fr_energy">   -874.64254830 </i>
    <i name="e_wo_entrp">   -874.64254830 </i>
    <i name="e_0_energy">   -874.64254830 </i>
   </energy>
  </scstep>
  <scstep>
   <time name="dav"> 1259.88 1274.95</time>
   <time name="total"> 1259.89 1274.95</time>
   <energy>
    <i name="e_fr_energy">   -874.66593764 </i>
    <i name="e_wo_entrp">   -874.66593764 </i>
    <i name="e_0_energy">   -874.66593764 </i>
   </energy>
  </scstep>
  <scstep>
   <time name="dav"> 1154.95 1169.12</time>
   <time name="total"> 1154.95 1169.12</time>
   <energy>
    <i name="e_fr_energy">   -874.66632821 </i>
    <i name="e_wo_entrp">   -874.66632821 </i>
    <i name="e_0_energy">   -874.66632821 </i>
   </energy>
  </scstep>
  <scstep>
   <time name="dav"> 1168.45 1182.97</time>
   <time name="total"> 1168.45 1182.98</time>
   <energy>
    <i name="e_fr_energy">   -874.66634606 </i>
    <i name="e_wo_entrp">   -874.66634606 </i>
    <i name="e_0_energy">   -874.66634606 </i>
   </energy>
  </scstep>
  <scstep>
   <time name="dav">  916.49  927.41</time>
   <time name="total">  916.49  927.41</time>
   <energy>
    <i name="alphaZ">     47.49116539 </i>
    <i name="ewald">  45817.56682406 </i>
    <i name="hartreedc"> -56325.03848633 </i>
    <i name="XCdc">   1244.25893786 </i>
    <i name="pawpsdc">  32634.88213106 </i>
    <i name="pawaedc"> -32694.02256157 </i>
    <i name="eentropy">     -0.00000000 </i>
    <i name="bandstr">  -4396.44303992 </i>
    <i name="atom">  12796.63868281 </i>
    <i name="e_fr_energy">   -874.66634663 </i>
    <i name="e_wo_entrp">   -874.66634663 </i>
    <i name="e_0_energy">   -874.66634663 </i>
   </energy>
  </scstep>
  <structure>
   <crystal>
    <varray name="basis" >
     <v>      25.58459808      -0.09774049       0.00000000 </v>
     <v>      -0.11176803      25.61111095       0.00000000 </v>
     <v>       0.00000000       0.00000000      20.00000000 </v>
    </varray>
    <i name="volume">  13104.78111519 </i>
    <varray name="rec_basis" >
     <v>       0.03908667       0.00017058       0.00000000 </v>
     <v>       0.00014917       0.03904620       0.00000000 </v>
     <v>       0.00000000       0.00000000       0.05000000 </v>
    </varray>
   </crystal>
   <varray name="positions" >
    <v>       0.90180099       0.86048732       0.46993807 </v>
    <v>       0.86327867       0.89697833       0.47805554 </v>
    <v>       0.88781821       0.94731108       0.48417825 </v>
    <v>       0.95138243       0.88701183       0.47232680 </v>
    <v>       0.00126081       0.86431558       0.46878917 </v>
    <v>       0.04914646       0.89227954       0.47017646 </v>
    <v>       0.10744419       0.95480895       0.47273487 </v>
    <v>       0.13637078       0.90597951       0.47258839 </v>
    <v>       0.10000724       0.86696822       0.47138814 </v>
    <v>       0.13228960       0.00424253       0.47531057 </v>
    <v>       0.10698364       0.05243651       0.48254185 </v>
    <v>       0.04342470       0.11244835       0.49567581 </v>
    <v>       0.09241397       0.13969424       0.48996140 </v>
    <v>       0.13101453       0.10324902       0.48181718 </v>
    <v>       0.99372009       0.13478941       0.50271002 </v>
    <v>       0.94594608       0.10685492       0.50343804 </v>
    <v>       0.88756334       0.04446323       0.50018430 </v>
    <v>       0.85887435       0.09300307       0.50888750 </v>
    <v>       0.89533031       0.13187908       0.51145040 </v>
    <v>       0.86262284       0.99527024       0.49435369 </v>
    <v>       0.80457975       0.99322281       0.50092235 </v>
    <v>       0.69457720       0.98886368       0.51546082 </v>
    <v>       0.71814691       0.97819165       0.45336632 </v>
    <v>       0.77235754       0.98015024       0.44654820 </v>
    <v>       0.99247209       0.19273338       0.50951529 </v>
    <v>       0.99149610       0.30267067       0.52268131 </v>
    <v>       0.97159897       0.27845089       0.46473950 </v>
    <v>       0.97192777       0.22424114       0.45862526 </v>
    <v>       0.19031587       0.00603322       0.46966178 </v>
    <v>       0.21500513       0.99147472       0.40974021 </v>
    <v>       0.26909496       0.99385777       0.40335255 </v>
    <v>       0.30046976       0.00894708       0.45791015 </v>
    <v>       0.00281750       0.80639160       0.46403529 </v>
    <v>       0.02553041       0.78151919       0.40855635 </v>
    <v>       0.00340589       0.69592754       0.45368870 </v>
    <v>       0.02539125       0.72739303       0.40307235 </v>
    <v>       0.00513003       0.44452517       0.48839660 </v>
    <v>       0.98349904       0.47241850       0.43408121 </v>
    <v>       0.98199307       0.52731912       0.43564586 </v>
    <v>       0.96011620       0.44375504       0.37492918 </v>
    <v>       0.95643176       0.55608015       0.37879441 </v>
    <v>       0.00595577       0.38699084       0.48390845 </v>
    <v>       0.55192219       0.00136299       0.48667057 </v>
    <v>       0.52364867       0.99009709       0.42738231 </v>
    <v>       0.46877606       0.98593455       0.42900011 </v>
    <v>       0.55133342       0.97974123       0.36198968 </v>
    <v>       0.44038991       0.97049302       0.36581864 </v>
    <v>       0.60930957       0.00530317       0.48203040 </v>
    <v>       0.78082202       0.00347725       0.56291151 </v>
    <v>       0.72684542       0.00054550       0.57048900 </v>
    <v>       0.01177604       0.21713645       0.56754640 </v>
    <v>       0.01049788       0.27114855       0.57470559 </v>
    <v>       0.27600104       0.02379324       0.51794443 </v>
    <v>       0.22168493       0.02273432       0.52325709 </v>
    <v>       0.98040140       0.77487994       0.51415910 </v>
    <v>       0.98048035       0.72067997       0.50929065 </v>
    <v>       0.00344069       0.55401362       0.49176348 </v>
    <v>       0.02361802       0.52566637       0.54720181 </v>
    <v>       0.02567278       0.47082806       0.54510981 </v>
    <v>       0.05191267       0.44126850       0.60111176 </v>
    <v>       0.04365570       0.55435018       0.60840719 </v>
    <v>       0.00662155       0.61102772       0.49509186 </v>
    <v>       0.44232088       0.99415145       0.49036602 </v>
    <v>       0.47063566       0.00485743       0.54978850 </v>
    <v>       0.52554212       0.00900655       0.54815456 </v>
    <v>       0.55399490       0.02391648       0.61147952 </v>
    <v>       0.44312332       0.01468006       0.61542462 </v>
    <v>       0.38485263       0.99167368       0.49428308 </v>
    <v>       0.94088957       0.93931326       0.47995876 </v>
    <v>       0.05459446       0.94557325       0.47187580 </v>
    <v>       0.05417600       0.06000829       0.49088473 </v>
    <v>       0.94032806       0.05378747       0.49702375 </v>
    <v>       0.99140680       0.35696453       0.53193928 </v>
    <v>       0.35476154       0.01082709       0.44925056 </v>
    <v>       0.00306972       0.64186788       0.44423134 </v>
    <v>       0.64044136       0.98589776       0.52569131 </v>
    <v>       0.04215700       0.70824651       0.35942723 </v>
    <v>       0.04254748       0.80536620       0.36879826 </v>
    <v>       0.89676036       0.81878072       0.46297078 </v>
    <v>       0.82142531       0.89012550       0.47978372 </v>
    <v>       0.96880279       0.96796415       0.48220921 </v>
    <v>       0.02641952       0.03115971       0.49097641 </v>
    <v>       0.10670315       0.82518517       0.47243811 </v>
    <v>       0.17858453       0.90236585       0.47475426 </v>
    <v>       0.19102044       0.97895089       0.36748112 </v>
    <v>       0.28801753       0.98364093       0.35631974 </v>
    <v>       0.17250253       0.11038288       0.47490772 </v>
    <v>       0.09680163       0.18184060       0.49099307 </v>
    <v>       0.81670594       0.09655308       0.51220800 </v>
    <v>       0.88888982       0.17340233       0.51807585 </v>
    <v>       0.95619348       0.20580250       0.41365079 </v>
    <v>       0.95483326       0.30236270       0.42511895 </v>
    <v>       0.79019559       0.97150768       0.39826636 </v>
    <v>       0.69375283       0.96705137       0.41085035 </v>
    <v>       0.96634411       0.40156900       0.37699287 </v>
    <v>       0.91753567       0.44940408       0.37249807 </v>
    <v>       0.97640622       0.45807269       0.32742016 </v>
    <v>       0.93646126       0.59118902       0.39624330 </v>
    <v>       0.98553662       0.57000546       0.34223156 </v>
    <v>       0.92821629       0.53115790       0.35234629 </v>
    <v>       0.02029633       0.37017835       0.43642211 </v>
    <v>       0.59327229       0.98827918       0.36382171 </v>
    <v>       0.54726596       0.93839109       0.34752038 </v>
    <v>       0.53449424       0.00278302       0.32104770 </v>
    <v>       0.40082510       0.95615817       0.37579849 </v>
    <v>       0.43635880       0.00397720       0.33168867 </v>
    <v>       0.46186761       0.94016130       0.33868166 </v>
    <v>       0.62523258       0.02644879       0.43823504 </v>
    <v>       0.96146103       0.69719734       0.54793513 </v>
    <v>       0.96248685       0.79350284       0.55745029 </v>
    <v>       0.20304735       0.03461795       0.56986262 </v>
    <v>       0.29987069       0.03732114       0.55982616 </v>
    <v>       0.02720676       0.19303290       0.60785253 </v>
    <v>       0.02457889       0.28989102       0.62032219 </v>
    <v>       0.70868852       0.00751132       0.61898282 </v>
    <v>       0.80546292       0.01309947       0.60577000 </v>
    <v>       0.08791223       0.46122912       0.61720458 </v>
    <v>       0.02629662       0.43745586       0.64510578 </v>
    <v>       0.06197331       0.40158892       0.58609457 </v>
    <v>       0.01533929       0.58314077       0.62645227 </v>
    <v>       0.05083817       0.52765968       0.64999857 </v>
    <v>       0.08040168       0.57563728       0.59841611 </v>
    <v>       0.01430495       0.62773085       0.54492082 </v>
    <v>       0.53310329       0.05477790       0.63841283 </v>
    <v>       0.55702459       0.99038360       0.64573185 </v>
    <v>       0.59393623       0.03725948       0.60178162 </v>
    <v>       0.40133474       0.00538080       0.61400052 </v>
    <v>       0.46061176       0.99183388       0.65608940 </v>
    <v>       0.44658597       0.05605451       0.63002204 </v>
    <v>       0.36780036       0.97192703       0.53843117 </v>
   </varray>
  </structure>
  <varray name="forces" >
   <v>       0.00399891      -0.00074904      -0.00066857 </v>
   <v>      -0.00000110       0.00640526       0.00086627 </v>
   <v>      -0.00207988      -0.00221505       0.00437403 </v>
   <v>      -0.00944500       0.00294580       0.00520143 </v>
   <v>       0.00083157      -0.01517159      -0.00249047 </v>
   <v>       0.00720826       0.00659198      -0.00751977 </v>
   <v>       0.00721869       0.00075256       0.00474176 </v>
   <v>       0.00024645       0.00310035      -0.00178754 </v>
   <v>      -0.00093450       0.00106161       0.00000696 </v>
   <v>      -0.01195808      -0.00419736       0.00000380 </v>
   <v>       0.00032608      -0.00229932      -0.00619530 </v>
   <v>       0.00739359      -0.00938703       0.00727501 </v>
   <v>       0.00222874      -0.00043193      -0.00156230 </v>
   <v>      -0.00122775       0.00200080       0.00148300 </v>
   <v>       0.00053934       0.01726778       0.00520625 </v>
   <v>      -0.00882638      -0.00782170      -0.00666015 </v>
   <v>      -0.00734361      -0.00540590      -0.00222460 </v>
   <v>      -0.00069819       0.00157148       0.00061166 </v>
   <v>       0.00017660      -0.00060082      -0.00002219 </v>
   <v>       0.00825223       0.00210563       0.00068278 </v>
   <v>      -0.00915231      -0.00163308       0.00486369 </v>
   <v>       0.01000142       0.00093392       0.00190904 </v>
   <v>      -0.00100225      -0.00002214       0.00444142 </v>
   <v>       0.00493857       0.00500710       0.00033857 </v>
   <v>       0.00034808      -0.01305624      -0.00248805 </v>
   <v>       0.00095573       0.01738937       0.00275041 </v>
   <v>      -0.00144524      -0.00567306      -0.00772569 </v>
   <v>      -0.01011918       0.00514058       0.00175662 </v>
   <v>       0.00939006      -0.00047585      -0.00112262 </v>
   <v>      -0.00141654       0.00360527      -0.00066882 </v>
   <v>       0.00078346      -0.00224171       0.00292219 </v>
   <v>      -0.00550597      -0.00066694       0.00062715 </v>
   <v>      -0.00009906       0.01299453      -0.00084508 </v>
   <v>       0.00935375      -0.00604900      -0.00197970 </v>
   <v>      -0.00295860      -0.01589227      -0.00386343 </v>
   <v>       0.00091449       0.00612422      -0.00425492 </v>
   <v>       0.00131670      -0.01986112       0.00154235 </v>
   <v>       0.00077332       0.00961074      -0.00639429 </v>
   <v>       0.00007026      -0.00841610      -0.00503478 </v>
   <v>      -0.00194480      -0.00164872      -0.00058867 </v>
   <v>      -0.00115192      -0.00173684      -0.00047621 </v>
   <v>      -0.00205603       0.01320610      -0.00809336 </v>
   <v>      -0.00989836      -0.00011495      -0.00068881 </v>
   <v>       0.00557852      -0.00066735       0.00221485 </v>
   <v>      -0.00636171      -0.00073269       0.00360688 </v>
   <v>      -0.00028285       0.00039014       0.00152610 </v>
   <v>       0.00088466       0.00088157       0.00028438 </v>
   <v>       0.00426129       0.00302901       0.00028442 </v>
   <v>       0.00316456      -0.00657352      -0.00022453 </v>
   <v>      -0.00166011       0.00148609      -0.00126334 </v>
   <v>       0.01078220       0.00175064       0.00115876 </v>
   <v>      -0.00080497      -0.00294537       0.00530636 </v>
   <v>       0.00280139       0.00016726      -0.00457374 </v>
   <v>      -0.00340873      -0.00532230       0.00085912 </v>
   <v>      -0.00774857      -0.00642719       0.00202755 </v>
   <v>       0.00086486       0.00353529       0.00453534 </v>
   <v>       0.00189923       0.01899478       0.00100868 </v>
   <v>       0.00219575      -0.00943753       0.00595106 </v>
   <v>      -0.00178596       0.00847080       0.00634649 </v>
   <v>      -0.00003087       0.00065157      -0.00362474 </v>
   <v>       0.00427618      -0.00070333      -0.00263366 </v>
   <v>      -0.00378796      -0.02419755       0.01164066 </v>
   <v>       0.01114011       0.00107026      -0.00153845 </v>
   <v>      -0.00755303       0.00210500      -0.00541802 </v>
   <v>       0.00610272       0.00331692      -0.00401418 </v>
   <v>      -0.00062783       0.00087348       0.00262650 </v>
   <v>      -0.00182931       0.00104189       0.00075994 </v>
   <v>      -0.00972617       0.00050058      -0.00738424 </v>
   <v>       0.00116284      -0.00416268       0.00231834 </v>
   <v>      -0.00704209      -0.00159551       0.00012241 </v>
   <v>       0.00122914       0.00532621       0.00130327 </v>
   <v>       0.00675847       0.00574359      -0.00023166 </v>
   <v>       0.01031800      -0.01534655       0.00387810 </v>
   <v>       0.00904703       0.00381761       0.00649732 </v>
   <v>       0.00245866       0.02458958      -0.01130474 </v>
   <v>      -0.00657178      -0.00682212      -0.00255251 </v>
   <v>      -0.00203927       0.00092753       0.00005395 </v>
   <v>      -0.00179293      -0.00206582       0.00095098 </v>
   <v>      -0.00042659       0.00057854      -0.00249061 </v>
   <v>      -0.00083377       0.00101414      -0.00034035 </v>
   <v>       0.00003344       0.00201704       0.00192858 </v>
   <v>      -0.00080073      -0.00096977      -0.00088287 </v>
   <v>      -0.00075120      -0.00072151       0.00026067 </v>
   <v>       0.00080671       0.00042263       0.00097616 </v>
   <v>       0.00172241      -0.00102723       0.00122264 </v>
   <v>       0.00132004      -0.00164656       0.00242790 </v>
   <v>       0.00003592      -0.00176655      -0.00072957 </v>
   <v>      -0.00126670      -0.00065709      -0.00060276 </v>
   <v>      -0.00121449       0.00033627       0.00072984 </v>
   <v>       0.00198868       0.00020999       0.00224470 </v>
   <v>      -0.00152150      -0.00059569       0.00220199 </v>
   <v>       0.00094572      -0.00111127       0.00021580 </v>
   <v>       0.00089036       0.00106598      -0.00058010 </v>
   <v>      -0.00096420      -0.00004064      -0.00118933 </v>
   <v>      -0.00050718       0.00114209       0.00009094 </v>
   <v>      -0.00093959       0.00013792       0.00081975 </v>
   <v>      -0.00157243       0.00000956      -0.00039428 </v>
   <v>       0.00067215       0.00033686       0.00146259 </v>
   <v>      -0.00023433      -0.00058909      -0.00116410 </v>
   <v>      -0.00063396       0.00029983       0.00176186 </v>
   <v>      -0.00256506       0.00070887       0.00166539 </v>
   <v>       0.00006005       0.00058230       0.00002132 </v>
   <v>      -0.00027672      -0.00043687       0.00037298 </v>
   <v>      -0.00106459       0.00088501      -0.00010117 </v>
   <v>      -0.00097512      -0.00021334      -0.00116424 </v>
   <v>      -0.00136035       0.00028338      -0.00125562 </v>
   <v>       0.00028101       0.00011466      -0.00010940 </v>
   <v>      -0.00023200       0.00199731       0.00098873 </v>
   <v>       0.00097677      -0.00009003       0.00151627 </v>
   <v>      -0.00264015      -0.00013923      -0.00060199 </v>
   <v>       0.00084831      -0.00014253      -0.00040500 </v>
   <v>       0.00143777       0.00106095      -0.00080963 </v>
   <v>       0.00128193       0.00082330       0.00135733 </v>
   <v>      -0.00101795       0.00070063       0.00016421 </v>
   <v>      -0.00135885       0.00083466      -0.00102785 </v>
   <v>      -0.00065749       0.00022186      -0.00013636 </v>
   <v>       0.00210117      -0.00099439      -0.00236720 </v>
   <v>      -0.00068197      -0.00048179       0.00160830 </v>
   <v>      -0.00025921      -0.00191935       0.00036456 </v>
   <v>      -0.00034477      -0.00028046      -0.00001067 </v>
   <v>       0.00218337      -0.00047786      -0.00027810 </v>
   <v>      -0.00033974       0.00049837      -0.00027532 </v>
   <v>      -0.00089402       0.00108441      -0.00362580 </v>
   <v>       0.00020506      -0.00077493      -0.00145396 </v>
   <v>       0.00011614       0.00109205      -0.00115860 </v>
   <v>      -0.00175956       0.00025645      -0.00144366 </v>
   <v>       0.00030347       0.00161396       0.00164591 </v>
   <v>       0.00041136       0.00028799      -0.00007375 </v>
   <v>      -0.00049017       0.00103891      -0.00016667 </v>
   <v>       0.00008954      -0.00029737       0.00004388 </v>
  </varray>
  <varray name="stress" >
   <v>       0.01406662      -0.00275012       0.00932754 </v>
   <v>      -0.00275012      -0.03378512       0.00026140 </v>
   <v>       0.00932754       0.00026140      -0.19033722 </v>
  </varray>
  <energy>
   <i name="e_fr_energy">   -877.46786315 </i>
   <i name="e_wo_entrp">   -877.46786315 </i>
   <i name="e_0_energy">     -0.00000000 </i>
  </energy>
  <time name="totalsc"> 7800.22 7898.60</time>
  <eigenvalues>
   <array>
    <dimension dim="1">band</dimension>
    <dimension dim="2">kpoint</dimension>
    <dimension dim="3">spin</dimension>
    <field>eigene</field>
    <field>occ</field>
    <set>
     <set comment="spin 1">
      <set comment="kpoint 1">
       <r>  -24.1884    1.0000 </r>
       <r>  -24.1526    1.0000 </r>
       <r>  -23.1217    1.0000 </r>
       <r>  -23.0985    1.0000 </r>
       <r>  -23.0742    1.0000 </r>
       <r>  -22.9483    1.0000 </r>
       <r>  -22.9301    1.0000 </r>
       <r>  -22.8657    1.0000 </r>
       <r>  -21.3164    1.0000 </r>
       <r>  -21.2995    1.0000 </r>
       <r>  -20.9682    1.0000 </r>
       <r>  -20.9505    1.0000 </r>
       <r>  -20.9334    1.0000 </r>
       <r>  -20.7962    1.0000 </r>
       <r>  -19.8793    1.0000 </r>
       <r>  -19.6960    1.0000 </r>
       <r>  -19.6414    1.0000 </r>
       <r>  -19.5625    1.0000 </r>
       <r>  -19.5349    1.0000 </r>
       <r>  -19.2255    1.0000 </r>
       <r>  -19.0831    1.0000 </r>
       <r>  -19.0567    1.0000 </r>
       <r>  -19.0000    1.0000 </r>
       <r>  -18.8259    1.0000 </r>
       <r>  -18.2216    1.0000 </r>
       <r>  -18.1614    1.0000 </r>
       <r>  -18.1361    1.0000 </r>
       <r>  -18.1221    1.0000 </r>
       <r>  -18.1073    1.0000 </r>
       <r>  -18.0528    1.0000 </r>
       <r>  -18.0264    1.0000 </r>
       <r>  -17.6360    1.0000 </r>
       <r>  -17.6169    1.0000 </r>
       <r>  -17.6078    1.0000 </r>
       <r>  -17.5519    1.0000 </r>
       <r>  -17.5027    1.0000 </r>
       <r>  -17.3517    1.0000 </r>
       <r>  -17.2430    1.0000 </r>
       <r>  -17.1135    1.0000 </r>
       <r>  -16.5053    1.0000 </r>
       <r>  -16.4561    1.0000 </r>
       <r>  -16.1683    1.0000 </r>
       <r>  -15.8950    1.0000 </r>
       <r>  -15.8651    1.0000 </r>
       <r>  -15.7837    1.0000 </r>
       <r>  -15.4022    1.0000 </r>
       <r>  -15.3900    1.0000 </r>
       <r>  -14.9999    1.0000 </r>
       <r>  -14.9255    1.0000 </r>
       <r>  -14.7371    1.0000 </r>
       <r>  -14.6851    1.0000 </r>
       <r>  -14.6029    1.0000 </r>
       <r>  -14.5586    1.0000 </r>
       <r>  -14.4722    1.0000 </r>
       <r>  -14.3010    1.0000 </r>
       <r>  -14.1410    1.0000 </r>
       <r>  -14.1051    1.0000 </r>
       <r>  -14.0708    1.0000 </r>
       <r>  -13.8096    1.0000 </r>
       <r>  -13.6749    1.0000 </r>
       <r>  -13.5875    1.0000 </r>
       <r>  -13.4603    1.0000 </r>
       <r>  -13.3301    1.0000 </r>
       <r>  -13.3086    1.0000 </r>
       <r>  -13.3000    1.0000 </r>
       <r>  -13.0257    1.0000 </r>
       <r>  -12.9365    1.0000 </r>
       <r>  -12.9116    1.0000 </r>
       <r>  -12.8123    1.0000 </r>
       <r>  -12.7858    1.0000 </r>
       <r>  -12.7307    1.0000 </r>
       <r>  -12.2691    1.0000 </r>
       <r>  -12.2551    1.0000 </r>
       <r>  -12.0678    1.0000 </r>
       <r>  -12.0009    1.0000 </r>
       <r>  -11.8501    1.0000 </r>
       <r>  -11.7984    1.0000 </r>
       <r>  -11.4848    1.0000 </r>
       <r>  -11.4414    1.0000 </r>
       <r>  -11.3929    1.0000 </r>
       <r>  -11.3604    1.0000 </r>
       <r>  -11.2452    1.0000 </r>
       <r>  -11.1539    1.0000 </r>
       <r>  -11.1299    1.0000 </r>
       <r>  -10.9292    1.0000 </r>
       <r>  -10.9042    1.0000 </r>
       <r>  -10.7143    1.0000 </r>
       <r>  -10.6958    1.0000 </r>
       <r>  -10.6346    1.0000 </r>
       <r>  -10.5404    1.0000 </r>
       <r>  -10.4976    1.0000 </r>
       <r>  -10.3732    1.0000 </r>
       <r>  -10.3526    1.0000 </r>
       <r>  -10.3044    1.0000 </r>
       <r>  -10.2897    1.0000 </r>
       <r>  -10.2506    1.0000 </r>
       <r>  -10.2262    1.0000 </r>
       <r>  -10.1403    1.0000 </r>
       <r>  -10.1052    1.0000 </r>
       <r>  -10.0631    1.0000 </r>
       <r>  -10.0447    1.0000 </r>
       <r>  -10.0066    1.0000 </r>
       <r>   -9.9958    1.0000 </r>
       <r>   -9.9592    1.0000 </r>
       <r>   -9.8933    1.0000 </r>
       <r>   -9.8401    1.0000 </r>
       <r>   -9.8224    1.0000 </r>
       <r>   -9.8144    1.0000 </r>
       <r>   -9.8031    1.0000 </r>
       <r>   -9.7607    1.0000 </r>
       <r>   -9.6848    1.0000 </r>
       <r>   -9.5294    1.0000 </r>
       <r>   -9.5229    1.0000 </r>
       <r>   -9.4749    1.0000 </r>
       <r>   -9.4449    1.0000 </r>
       <r>   -9.4189    1.0000 </r>
       <r>   -9.3709    1.0000 </r>
       <r>   -9.3226    1.0000 </r>
       <r>   -9.2813    1.0000 </r>
       <r>   -9.2514    1.0000 </r>
       <r>   -9.1948    1.0000 </r>
       <r>   -9.1737    1.0000 </r>
       <r>   -9.1631    1.0000 </r>
       <r>   -9.1392    1.0000 </r>
       <r>   -9.1035    1.0000 </r>
       <r>   -9.0532    1.0000 </r>
[...]
       <r>   -18.4226     0.0000    48.0000 </r>
       <r>   -18.3286     0.0000    48.0000 </r>
       <r>   -18.2347    18.2850    49.7181 </r>
       <r>   -18.1407    27.2719    52.5625 </r>
       <r>   -18.0467    47.0412    59.7072 </r>
       <r>   -17.9528     4.3709    60.4108 </r>
       <r>   -17.8588    16.6135    62.0114 </r>
       <r>   -17.7648    11.9628    63.6428 </r>
       <r>   -17.6709    10.9092    64.6920 </r>
       <r>   -17.5769    47.8032    69.3085 </r>
       <r>   -17.4830     5.8114    70.1478 </r>
       <r>   -17.3890     6.1176    70.7586 </r>
       <r>   -17.2950    21.2781    72.8496 </r>
       <r>   -17.2011    31.0187    76.0000 </r>
       <r>   -17.1071     8.7073    76.8182 </r>
       <r>   -17.0132     0.0000    78.0000 </r>
       <r>   -16.9192     0.0000    78.0000 </r>
       <r>   -16.8252     0.0000    78.0000 </r>
       <r>   -16.7313     0.0000    78.0000 </r>
       <r>   -16.6373     0.0000    78.0000 </r>
       <r>   -16.5433     0.0000    78.0000 </r>
       <r>   -16.4494    23.6178    80.2192 </r>
       <r>   -16.3554    14.9209    81.8359 </r>
       <r>   -16.2615    15.8943    83.5019 </r>
       <r>   -16.1675    13.4804    84.8002 </r>
       <r>   -16.0735     3.0437    85.2193 </r>
       <r>   -15.9796     5.1224    85.7649 </r>
       <r>   -15.8856     2.0900    85.9965 </r>
       <r>   -15.7917     6.9637    86.6544 </r>
       <r>   -15.6977     5.0774    87.2774 </r>
       <r>   -15.6037     6.6197    87.9888 </r>
       <r>   -15.5098    15.6052    90.0000 </r>
       <r>   -15.4158     3.3606    90.3158 </r>
       <r>   -15.3218    21.2547    94.0000 </r>
       <r>   -15.2279     4.2118    94.3957 </r>
       <r>   -15.1339     4.9349    95.0974 </r>
       <r>   -15.0400     5.2483    95.6934 </r>
       <r>   -14.9460    11.2166    96.8040 </r>
       <r>   -14.8520     1.2355    98.0000 </r>
       <r>   -14.7581     1.0562    98.0992 </r>
       <r>   -14.6641    31.5449   102.0003 </r>
       <r>   -14.5702    21.3121   104.0030 </r>
       <r>   -14.4762    21.1513   106.0380 </r>
       <r>   -14.3822     2.1823   106.3720 </r>
       <r>   -14.2883    14.7010   107.7816 </r>
       <r>   -14.1943    32.6051   111.5644 </r>
       <r>   -14.1004    25.1224   113.9773 </r>
       <r>   -14.0064    21.2847   116.0000 </r>
       <r>   -13.9124     0.0000   116.0000 </r>
       <r>   -13.8185     0.0928   116.0087 </r>
       <r>   -13.7245    19.5700   117.9395 </r>
       <r>   -13.6305    27.7540   120.5915 </r>
       <r>   -13.5366    19.2448   122.7093 </r>
       <r>   -13.4426    11.8714   123.9994 </r>
       <r>   -13.3487     0.0042   124.0004 </r>
       <r>   -13.2547    63.7414   129.9896 </r>
       <r>   -13.1607     0.0000   130.0000 </r>
       <r>   -13.0668     0.0000   130.0000 </r>
       <r>   -12.9728    21.2853   132.0000 </r>
       <r>   -12.8789    42.0540   135.9515 </r>
       <r>   -12.7849    23.2516   139.1235 </r>
       <r>   -12.6909    18.0619   141.1985 </r>
       <r>   -12.5970     0.0000   142.0000 </r>
       <r>   -12.5030     0.0000   142.0000 </r>
       <r>   -12.4090     0.0005   142.0000 </r>
       <r>   -12.3151    18.5790   143.7458 </r>
       <r>   -12.2211    14.7462   145.2025 </r>
       <r>   -12.1272     9.7721   146.3359 </r>
       <r>   -12.0332    11.3038   147.5628 </r>
       <r>   -11.9392     2.7609   148.2594 </r>
       <r>   -11.8453    26.3706   150.7945 </r>
       <r>   -11.7513    31.1760   153.9969 </r>
       <r>   -11.6574     8.4815   154.7969 </r>
       <r>   -11.5634     6.9099   155.5665 </r>
       <r>   -11.4694     3.7131   155.9989 </r>
       <r>   -11.3755    56.2753   161.2877 </r>
       <r>   -11.2815     4.4035   162.0000 </r>
       <r>   -11.1875    20.2821   163.9057 </r>
       <r>   -11.0936    34.4586   167.2381 </r>
       <r>   -10.9996     0.0000   168.0000 </r>
       <r>   -10.9057    24.7772   170.3281 </r>
       <r>   -10.8117    10.1938   172.0000 </r>
       <r>   -10.7177    19.6871   173.8498 </r>
       <r>   -10.6238    27.2157   176.5573 </r>
       <r>   -10.5298    31.7363   179.9391 </r>
       <r>   -10.4359    21.2850   182.0000 </r>
       <r>   -10.3419    38.2802   185.5969 </r>
       <r>   -10.2479    54.1148   191.0847 </r>
       <r>   -10.1540    36.4987   195.4309 </r>
       <r>   -10.0600    49.7791   200.6773 </r>
       <r>    -9.9660    49.6713   206.0201 </r>
       <r>    -9.8721    38.9702   209.8293 </r>
       <r>    -9.7781    85.2538   218.0106 </r>
       <r>    -9.6842    32.6787   221.0813 </r>
       <r>    -9.5902     0.0000   222.0000 </r>
       <r>    -9.4962    42.7787   226.0196 </r>
       <r>    -9.4023    49.6038   231.8626 </r>
       <r>    -9.3083    42.5816   236.0010 </r>
       <r>    -9.2144    30.8256   240.0038 </r>
       <r>    -9.1204    93.9159   248.8282 </r>
       <r>    -9.0264    13.6693   251.1202 </r>
       <r>    -8.9325    19.1622   253.8005 </r>
       <r>    -8.8385    41.0864   257.8617 </r>
       <r>    -8.7445    43.4691   262.0894 </r>
       <r>    -8.6506    15.4147   264.0000 </r>
       <r>    -8.5566    43.4302   268.0808 </r>
       <r>    -8.4627    58.3390   273.9999 </r>
       <r>    -8.3687    13.9009   275.3062 </r>
       <r>    -8.2747    43.5453   280.0101 </r>
       <r>    -8.1808    35.6985   283.8744 </r>
       <r>    -8.0868    30.0820   287.4297 </r>
       <r>    -7.9929    26.2097   290.3312 </r>
       <r>    -7.8989    56.1541   295.8936 </r>
       <r>    -7.8049    20.6946   297.9445 </r>
       <r>    -7.7110    21.7902   300.0474 </r>
       <r>    -7.6170    38.0437   303.9890 </r>
       <r>    -7.5230    19.9538   305.8749 </r>
       <r>    -7.4291    27.2206   308.5602 </r>
       <r>    -7.3351    24.9786   311.0479 </r>
       <r>    -7.2412     9.6485   312.3914 </r>
       <r>    -7.1472    14.1816   314.0000 </r>
       <r>    -7.0532     0.0000   314.0000 </r>
       <r>    -6.9593     0.0000   314.0000 </r>
       <r>    -6.8653     0.0000   314.0000 </r>
       <r>    -6.7714     0.0000   314.0000 </r>
       <r>    -6.6774     2.0535   314.1929 </r>
       <r>    -6.5834    10.5274   316.0079 </r>
       <r>    -6.4895    17.5385   317.7824 </r>
       <r>    -6.3955    15.5082   319.3242 </r>
       <r>    -6.3015    11.6191   320.6591 </r>
       <r>    -6.2076    15.4971   322.3496 </r>
       <r>    -6.1136    18.7756   324.3146 </r>
       <r>    -6.0197    61.5453   330.7728 </r>
       <r>    -5.9257    50.6563   336.0281 </r>
       <r>    -5.8317    17.2279   338.0000 </r>
       <r>    -5.7378    28.8243   340.7084 </r>
       <r>    -5.6438     0.0000   342.0000 </r>
       <r>    -5.5499     0.0000   342.0000 </r>
       <r>    -5.4559    42.5705   346.0000 </r>
       <r>    -5.3619    21.2826   347.9997 </r>
       <r>    -5.2680    48.5670   352.5634 </r>
       <r>    -5.1740    13.6891   355.2863 </r>
       <r>    -5.0801    24.5135   358.0375 </r>
       <r>    -4.9861    18.5037   359.9730 </r>
       <r>    -4.8921    21.2852   362.0000 </r>
       <r>    -4.7982     0.0000   362.0000 </r>
       <r>    -4.7042     0.0015   362.0001 </r>
       <r>    -4.6102    21.2838   364.0000 </r>
       <r>    -4.5163     0.0000   364.0000 </r>
       <r>    -4.4223     0.0000   364.0000 </r>
       <r>    -4.3284     0.0000   364.0000 </r>
       <r>    -4.2344    20.5448   365.9304 </r>
       <r>    -4.1404     0.0000   366.0000 </r>
       <r>    -4.0465     0.0000   366.0000 </r>
       <r>    -3.9525     0.0000   366.0000 </r>
       <r>    -3.8586     0.0000   366.0000 </r>
       <r>    -3.7646     0.0000   366.0000 </r>
       <r>    -3.6706     0.0000   366.0000 </r>
       <r>    -3.5767     0.0000   366.0000 </r>
       <r>    -3.4827     0.0000   366.0000 </r>
       <r>    -3.3887     0.0000   366.0000 </r>
       <r>    -3.2948     0.0000   366.0000 </r>
       <r>    -3.2008     0.0000   366.0000 </r>
       <r>    -3.1069     0.0000   366.0000 </r>
       <r>    -3.0129     0.0000   366.0000 </r>
       <r>    -2.9189     0.0000   366.0000 </r>
       <r>    -2.8250     0.0000   366.0000 </r>
       <r>    -2.7310     0.0000   366.0000 </r>
       <r>    -2.6371     3.9740   366.3734 </r>
       <r>    -2.5431    36.0633   369.9894 </r>
       <r>    -2.4491     0.4841   370.0455 </r>
       <r>    -2.3552    10.5076   371.8051 </r>
       <r>    -2.2612     9.7178   372.9131 </r>
       <r>    -2.1672     0.0000   374.0000 </r>
       <r>    -2.0733     0.0000   374.0000 </r>
       <r>    -1.9793     0.0000   374.0000 </r>
       <r>    -1.8854     0.0000   374.0000 </r>
       <r>    -1.7914     0.0000   374.0000 </r>
       <r>    -1.6974     0.0000   374.0000 </r>
       <r>    -1.6035     5.9595   374.5600 </r>
       <r>    -1.5095    33.3151   378.0000 </r>
       <r>    -1.4156     0.0000   378.0000 </r>
       <r>    -1.3216     0.0000   378.0000 </r>
       <r>    -1.2276    17.2403   379.6199 </r>
       <r>    -1.1337     0.0000   380.0000 </r>
       <r>    -1.0397     0.0000   380.0000 </r>
       <r>    -0.9457     0.0031   380.0003 </r>
       <r>    -0.8518    81.8100   387.6873 </r>
       <r>    -0.7578    11.9262   389.1206 </r>
       <r>    -0.6639    21.2388   392.0000 </r>
       <r>    -0.5699    19.9296   393.8726 </r>
       <r>    -0.4759    21.2835   396.0000 </r>
       <r>    -0.3820     0.0592   396.0056 </r>
       <r>    -0.2880    42.4516   399.9944 </r>
       <r>    -0.1941    40.7655   403.8304 </r>
       <r>    -0.1001     9.7696   404.9180 </r>
       <r>    -0.0061    30.2913   407.9974 </r>
       <r>     0.0878    29.5111   410.7729 </r>
       <r>     0.1818    14.5028   412.4137 </r>
       <r>     0.2758    46.7100   417.0904 </r>
       <r>     0.3697    44.3250   421.7679 </r>
       <r>     0.4637    63.8863   428.1703 </r>
       <r>     0.5576    42.9797   433.0580 </r>
       <r>     0.6516    57.2643   439.3845 </r>
       <r>     0.7456    75.5727   447.7713 </r>
       <r>     0.8395    75.4851   456.0315 </r>
       <r>     0.9335    77.2702   464.4984 </r>
       <r>     1.0274    64.3049   471.4625 </r>
       <r>     1.1214    83.9266   480.8881 </r>
       <r>     1.2154    89.7831   490.6178 </r>
       <r>     1.3093    75.1584   499.7071 </r>
       <r>     1.4033    97.1553   510.4315 </r>
       <r>     1.4973     6.5292   512.0000 </r>
       <r>     1.5912     0.0000   512.0000 </r>
       <r>     1.6852     0.0000   512.0000 </r>
       <r>     1.7791     0.0000   512.0000 </r>
       <r>     1.8731     0.0000   512.0000 </r>
       <r>     1.9671     0.0000   512.0000 </r>
       <r>     2.0610     0.0000   512.0000 </r>
       <r>     2.1550     0.0000   512.0000 </r>
       <r>     2.2489     0.0000   512.0000 </r>
       <r>     2.3429     0.0000   512.0000 </r>
       <r>     2.4369     0.0000   512.0000 </r>
       <r>     2.5308     0.0000   512.0000 </r>
       <r>     2.6248     0.0000   512.0000 </r>
       <r>     2.7188     0.0000   512.0000 </r>
      </set>
     </set>
    </array>
   </total>
  </dos>
 </calculation>
 <structure name="finalpos" >
  <crystal>
   <varray name="basis" >
    <v>      25.58459808      -0.09774049       0.00000000 </v>
    <v>      -0.11176803      25.61111095       0.00000000 </v>
    <v>       0.00000000       0.00000000      20.00000000 </v>
   </varray>
   <i name="volume">  13104.78111519 </i>
   <varray name="rec_basis" >
    <v>       0.03908667       0.00017058       0.00000000 </v>
    <v>       0.00014917       0.03904620       0.00000000 </v>
    <v>       0.00000000       0.00000000       0.05000000 </v>
   </varray>
  </crystal>
  <varray name="positions" >
   <v>       0.90180099       0.86048732       0.46993807 </v>
   <v>       0.86327867       0.89697833       0.47805554 </v>
   <v>       0.88781821       0.94731108       0.48417825 </v>
   <v>       0.95138243       0.88701183       0.47232680 </v>
   <v>       0.00126081       0.86431558       0.46878917 </v>
   <v>       0.04914646       0.89227954       0.47017646 </v>
   <v>       0.10744419       0.95480895       0.47273487 </v>
   <v>       0.13637078       0.90597951       0.47258839 </v>
   <v>       0.10000724       0.86696822       0.47138814 </v>
   <v>       0.13228960       0.00424253       0.47531057 </v>
   <v>       0.10698364       0.05243651       0.48254185 </v>
   <v>       0.04342470       0.11244835       0.49567581 </v>
   <v>       0.09241397       0.13969424       0.48996140 </v>
   <v>       0.13101453       0.10324902       0.48181718 </v>
   <v>       0.99372009       0.13478941       0.50271002 </v>
   <v>       0.94594608       0.10685492       0.50343804 </v>
   <v>       0.88756334       0.04446323       0.50018430 </v>
   <v>       0.85887435       0.09300307       0.50888750 </v>
   <v>       0.89533031       0.13187908       0.51145040 </v>
   <v>       0.86262284       0.99527024       0.49435369 </v>
   <v>       0.80457975       0.99322281       0.50092235 </v>
   <v>       0.69457720       0.98886368       0.51546082 </v>
   <v>       0.71814691       0.97819165       0.45336632 </v>
   <v>       0.77235754       0.98015024       0.44654820 </v>
   <v>       0.99247209       0.19273338       0.50951529 </v>
   <v>       0.99149610       0.30267067       0.52268131 </v>
   <v>       0.97159897       0.27845089       0.46473950 </v>
   <v>       0.97192777       0.22424114       0.45862526 </v>
   <v>       0.19031587       0.00603322       0.46966178 </v>
   <v>       0.21500513       0.99147472       0.40974021 </v>
   <v>       0.26909496       0.99385777       0.40335255 </v>
   <v>       0.30046976       0.00894708       0.45791015 </v>
   <v>       0.00281750       0.80639160       0.46403529 </v>
   <v>       0.02553041       0.78151919       0.40855635 </v>
   <v>       0.00340589       0.69592754       0.45368870 </v>
   <v>       0.02539125       0.72739303       0.40307235 </v>
   <v>       0.00513003       0.44452517       0.48839660 </v>
   <v>       0.98349904       0.47241850       0.43408121 </v>
   <v>       0.98199307       0.52731912       0.43564586 </v>
   <v>       0.96011620       0.44375504       0.37492918 </v>
   <v>       0.95643176       0.55608015       0.37879441 </v>
   <v>       0.00595577       0.38699084       0.48390845 </v>
   <v>       0.55192219       0.00136299       0.48667057 </v>
   <v>       0.52364867       0.99009709       0.42738231 </v>
   <v>       0.46877606       0.98593455       0.42900011 </v>
   <v>       0.55133342       0.97974123       0.36198968 </v>
   <v>       0.44038991       0.97049302       0.36581864 </v>
   <v>       0.60930957       0.00530317       0.48203040 </v>
   <v>       0.78082202       0.00347725       0.56291151 </v>
   <v>       0.72684542       0.00054550       0.57048900 </v>
   <v>       0.01177604       0.21713645       0.56754640 </v>
   <v>       0.01049788       0.27114855       0.57470559 </v>
   <v>       0.27600104       0.02379324       0.51794443 </v>
   <v>       0.22168493       0.02273432       0.52325709 </v>
   <v>       0.98040140       0.77487994       0.51415910 </v>
   <v>       0.98048035       0.72067997       0.50929065 </v>
   <v>       0.00344069       0.55401362       0.49176348 </v>
   <v>       0.02361802       0.52566637       0.54720181 </v>
   <v>       0.02567278       0.47082806       0.54510981 </v>
   <v>       0.05191267       0.44126850       0.60111176 </v>
   <v>       0.04365570       0.55435018       0.60840719 </v>
   <v>       0.00662155       0.61102772       0.49509186 </v>
   <v>       0.44232088       0.99415145       0.49036602 </v>
   <v>       0.47063566       0.00485743       0.54978850 </v>
   <v>       0.52554212       0.00900655       0.54815456 </v>
   <v>       0.55399490       0.02391648       0.61147952 </v>
   <v>       0.44312332       0.01468006       0.61542462 </v>
   <v>       0.38485263       0.99167368       0.49428308 </v>
   <v>       0.94088957       0.93931326       0.47995876 </v>
   <v>       0.05459446       0.94557325       0.47187580 </v>
   <v>       0.05417600       0.06000829       0.49088473 </v>
   <v>       0.94032806       0.05378747       0.49702375 </v>
   <v>       0.99140680       0.35696453       0.53193928 </v>
   <v>       0.35476154       0.01082709       0.44925056 </v>
   <v>       0.00306972       0.64186788       0.44423134 </v>
   <v>       0.64044136       0.98589776       0.52569131 </v>
   <v>       0.04215700       0.70824651       0.35942723 </v>
   <v>       0.04254748       0.80536620       0.36879826 </v>
   <v>       0.89676036       0.81878072       0.46297078 </v>
   <v>       0.82142531       0.89012550       0.47978372 </v>
   <v>       0.96880279       0.96796415       0.48220921 </v>
   <v>       0.02641952       0.03115971       0.49097641 </v>
   <v>       0.10670315       0.82518517       0.47243811 </v>
   <v>       0.17858453       0.90236585       0.47475426 </v>
   <v>       0.19102044       0.97895089       0.36748112 </v>
   <v>       0.28801753       0.98364093       0.35631974 </v>
   <v>       0.17250253       0.11038288       0.47490772 </v>
   <v>       0.09680163       0.18184060       0.49099307 </v>
   <v>       0.81670594       0.09655308       0.51220800 </v>
   <v>       0.88888982       0.17340233       0.51807585 </v>
   <v>       0.95619348       0.20580250       0.41365079 </v>
   <v>       0.95483326       0.30236270       0.42511895 </v>
   <v>       0.79019559       0.97150768       0.39826636 </v>
   <v>       0.69375283       0.96705137       0.41085035 </v>
   <v>       0.96634411       0.40156900       0.37699287 </v>
   <v>       0.91753567       0.44940408       0.37249807 </v>
   <v>       0.97640622       0.45807269       0.32742016 </v>
   <v>       0.93646126       0.59118902       0.39624330 </v>
   <v>       0.98553662       0.57000546       0.34223156 </v>
   <v>       0.92821629       0.53115790       0.35234629 </v>
   <v>       0.02029633       0.37017835       0.43642211 </v>
   <v>       0.59327229       0.98827918       0.36382171 </v>
   <v>       0.54726596       0.93839109       0.34752038 </v>
   <v>       0.53449424       0.00278302       0.32104770 </v>
   <v>       0.40082510       0.95615817       0.37579849 </v>
   <v>       0.43635880       0.00397720       0.33168867 </v>
   <v>       0.46186761       0.94016130       0.33868166 </v>
   <v>       0.62523258       0.02644879       0.43823504 </v>
   <v>       0.96146103       0.69719734       0.54793513 </v>
   <v>       0.96248685       0.79350284       0.55745029 </v>
   <v>       0.20304735       0.03461795       0.56986262 </v>
   <v>       0.29987069       0.03732114       0.55982616 </v>
   <v>       0.02720676       0.19303290       0.60785253 </v>
   <v>       0.02457889       0.28989102       0.62032219 </v>
   <v>       0.70868852       0.00751132       0.61898282 </v>
   <v>       0.80546292       0.01309947       0.60577000 </v>
   <v>       0.08791223       0.46122912       0.61720458 </v>
   <v>       0.02629662       0.43745586       0.64510578 </v>
   <v>       0.06197331       0.40158892       0.58609457 </v>
   <v>       0.01533929       0.58314077       0.62645227 </v>
   <v>       0.05083817       0.52765968       0.64999857 </v>
   <v>       0.08040168       0.57563728       0.59841611 </v>
   <v>       0.01430495       0.62773085       0.54492082 </v>
   <v>       0.53310329       0.05477790       0.63841283 </v>
   <v>       0.55702459       0.99038360       0.64573185 </v>
   <v>       0.59393623       0.03725948       0.60178162 </v>
   <v>       0.40133474       0.00538080       0.61400052 </v>
   <v>       0.46061176       0.99183388       0.65608940 </v>
   <v>       0.44658597       0.05605451       0.63002204 </v>
   <v>       0.36780036       0.97192703       0.53843117 </v>
  </varray>
 </structure>
</modeling>
