<?xml version="1.0" encoding="ISO-8859-1"?>
<modeling>
 <generator>
  <i name="program" type="string">vasp </i>
  <i name="version" type="string">5.4.4.18Apr17-6-g9f103f2a35  </i>
  <i name="subversion" type="string">(build Jun 07 2020 16:50:00) complex            parallel </i>
  <i name="platform" type="string">LinuxIFC </i>
  <i name="date" type="string">2023 02 26 </i>
  <i name="time" type="string">12:40:24 </i>
 </generator>
 <incar>
  <i type="string" name="SYSTEM">Simulation for cell shape cell volume r</i>
  <i type="int" name="ISTART">     1</i>
  <i type="string" name="PREC">high</i>
  <i type="string" name="ALGO">48</i>
  <i type="int" name="ICHARG">    11</i>
  <i type="int" name="NELM">   200</i>
  <i type="int" name="IBRION">    -1</i>
  <i name="EDIFF">      0.00001000</i>
  <i name="EDIFFG">     -0.01000000</i>
  <i type="int" name="NSW">     0</i>
  <i type="int" name="ISIF">     2</i>
  <i name="ENCUT">    500.00000000</i>
  <i name="POTIM">      0.30000000</i>
  <i type="string" name="LREAL">A</i>
  <i type="int" name="ISMEAR">     0</i>
  <i name="SIGMA">      0.01000000</i>
  <i type="int" name="NWRITE">     0</i>
  <i type="logical" name="LWAVE"> F  </i>
  <i type="logical" name="LCHARG"> F  </i>
  <v type="int" name="KPOINT_BSE">    -1     0     0     0</v>
  <i type="int" name="NELM">   200</i>
  <i type="string" name="GGA">PE</i>
 </incar>
 <structure name="primitive_cell" >
  <crystal>
   <varray name="basis" >
    <v>      25.38281785       0.06009259       0.00000000 </v>
    <v>       0.04359805      25.39068947       0.00000000 </v>
    <v>       0.00000000       0.00000000      20.00000000 </v>
   </varray>
   <i name="volume">  12889.69251629 </i>
   <varray name="rec_basis" >
    <v>       0.03939689      -0.00006765       0.00000000 </v>
    <v>      -0.00009324       0.03938468       0.00000000 </v>
    <v>       0.00000000       0.00000000       0.05000000 </v>
   </varray>
  </crystal>
  <varray name="positions" >
   <v>      -0.00704131      -0.48349335       0.40505327 </v>
   <v>      -0.00604909       0.46395658       0.40237979 </v>
   <v>      -0.01806144      -0.45986570       0.46354235 </v>
   <v>      -0.01893870      -0.40510868       0.46167304 </v>
   <v>      -0.01739883       0.43394267       0.46044400 </v>
   <v>      -0.03153641      -0.48980129      -0.47854335 </v>
   <v>       0.00615522       0.43848118       0.33648606 </v>
   <v>       0.01914937       0.46852137       0.30086025 </v>
   <v>      -0.03053919       0.45776087      -0.48190929 </v>
   <v>      -0.02893447       0.41873274       0.31631024 </v>
   <v>       0.03649612       0.40785437       0.34214949 </v>
   <v>       0.00590119      -0.37697372      -0.49541740 </v>
   <v>      -0.01453078       0.37915180       0.45573896 </v>
   <v>       0.03142267      -0.39474718      -0.45659972 </v>
   <v>      -0.04882116      -0.46566115      -0.41328631 </v>
   <v>      -0.07009013      -0.42839222      -0.42087413 </v>
   <v>      -0.01507429      -0.45749586      -0.38036836 </v>
   <v>      -0.03669008      -0.31429921       0.40936252 </v>
   <v>      -0.07435444      -0.49357506      -0.38698614 </v>
   <v>       0.00296279      -0.31944780      -0.49561329 </v>
   <v>      -0.03194526       0.35042707      -0.49579303 </v>
   <v>      -0.04996530       0.36837918      -0.45099337 </v>
   <v>      -0.02084509      -0.29188796       0.45125014 </v>
   <v>       0.00373519       0.28865175       0.40309348 </v>
   <v>       0.02428232      -0.29080939      -0.44200979 </v>
   <v>       0.04284758      -0.31186586      -0.40053841 </v>
   <v>      -0.02867319       0.29311412      -0.49752768 </v>
   <v>      -0.02312000      -0.23726147       0.45210735 </v>
   <v>      -0.00900673       0.26586673       0.44633436 </v>
   <v>      -0.04070815      -0.21600070       0.41023007 </v>
   <v>       0.02126689      -0.23601376      -0.44085046 </v>
   <v>      -0.04568339       0.26386338      -0.44188878 </v>
   <v>      -0.06090070       0.28458888      -0.39804610 </v>
   <v>      -0.00228691      -0.20835230      -0.49391938 </v>
   <v>      -0.00648329       0.21123837       0.44621841 </v>
   <v>       0.03716718      -0.21410802      -0.39855955 </v>
   <v>      -0.10894694      -0.19786575      -0.48807773 </v>
   <v>       0.10193267      -0.18833103      -0.49702669 </v>
   <v>       0.00822904       0.19033153       0.40230687 </v>
   <v>      -0.04288770       0.20907610      -0.44200031 </v>
   <v>      -0.00523157      -0.14974186      -0.49378126 </v>
   <v>      -0.02328048       0.18192031      -0.49795356 </v>
   <v>      -0.10522626      -0.15538155      -0.49013642 </v>
   <v>       0.09419246      -0.14627580      -0.49627420 </v>
   <v>       0.08321486       0.17161846       0.49899834 </v>
   <v>      -0.05575794       0.18673686      -0.39840884 </v>
   <v>      -0.05614593      -0.12759877      -0.49292006 </v>
   <v>       0.04241500      -0.12114220      -0.49504569 </v>
   <v>      -0.12720701       0.16193639      -0.49824537 </v>
   <v>      -0.14529512      -0.11888918      -0.49049153 </v>
   <v>      -0.02019532       0.12329073      -0.49808278 </v>
   <v>       0.07965573       0.12908431       0.49965655 </v>
   <v>      -0.18729378      -0.12646513      -0.48958033 </v>
   <v>       0.13006568      -0.10669743      -0.49641568 </v>
   <v>      -0.11958158       0.11985999      -0.49707545 </v>
   <v>      -0.06839263      -0.07475764      -0.49372214 </v>
   <v>       0.17267599      -0.11034344      -0.49615608 </v>
   <v>       0.03066160       0.10115533      -0.49908380 </v>
   <v>       0.04686841      -0.06733745      -0.49595937 </v>
   <v>      -0.06779917       0.09470561      -0.49683424 </v>
   <v>      -0.12216973      -0.06745095      -0.49229355 </v>
   <v>       0.09996903      -0.05761688      -0.49703856 </v>
   <v>      -0.04136506      -0.04512710      -0.49532893 </v>
   <v>       0.11978046       0.09266488       0.49924368 </v>
   <v>       0.16171670       0.10040316       0.49737701 </v>
   <v>      -0.15542648       0.08026598      -0.49563652 </v>
   <v>       0.04301678       0.04830346      -0.49798676 </v>
   <v>      -0.19805182       0.08369430      -0.49461295 </v>
   <v>       0.19035382      -0.04289005       0.40564771 </v>
   <v>      -0.07218565       0.04091676      -0.49624918 </v>
   <v>      -0.14906393      -0.01893542      -0.49362513 </v>
   <v>       0.09679530       0.04114853      -0.49845202 </v>
   <v>       0.12376476      -0.00738351      -0.49782888 </v>
   <v>      -0.21336340      -0.05191308      -0.39305580 </v>
   <v>       0.01602450       0.01864265      -0.49676436 </v>
   <v>      -0.12527253       0.03122330      -0.49556390 </v>
   <v>      -0.20773574      -0.02147544      -0.49356167 </v>
   <v>       0.21146113      -0.02533288       0.44755265 </v>
   <v>      -0.23531265      -0.04001389      -0.43749333 </v>
   <v>       0.18238701      -0.00475194      -0.49831331 </v>
   <v>      -0.23662591      -0.00562045       0.44968458 </v>
   <v>      -0.21534705       0.00852313       0.40584990 </v>
   <v>       0.28867199      -0.03887874       0.40487752 </v>
   <v>      -0.29010582      -0.04284162      -0.43823911 </v>
   <v>       0.26610177      -0.02310454       0.44679447 </v>
   <v>       0.18787946       0.03427487      -0.40265769 </v>
   <v>      -0.31118081      -0.05725751      -0.39431762 </v>
   <v>      -0.29124621      -0.00821559       0.44890711 </v>
   <v>       0.20988588       0.01865867      -0.44514964 </v>
   <v>      -0.31892836      -0.02700238      -0.49491697 </v>
   <v>      -0.31366543       0.00374072       0.40489498 </v>
   <v>       0.26466457       0.02168753      -0.44624213 </v>
   <v>       0.29347958       0.00051941      -0.49993616 </v>
   <v>       0.28557671       0.04007235      -0.40464082 </v>
   <v>      -0.37622725      -0.03073278      -0.49416523 </v>
   <v>      -0.39435145      -0.04793731      -0.44905946 </v>
   <v>       0.40204924      -0.07188820      -0.42423566 </v>
   <v>       0.37957510      -0.02141430       0.45787982 </v>
   <v>       0.35097918       0.00341176      -0.49945645 </v>
   <v>      -0.40472183      -0.01481281       0.45618827 </v>
   <v>       0.36839960       0.02886849      -0.46048422 </v>
   <v>      -0.44222694      -0.03153456       0.31608179 </v>
   <v>       0.43912428      -0.05075138      -0.41599154 </v>
   <v>       0.43431620      -0.02034650       0.46061071 </v>
   <v>      -0.43270313       0.03420570       0.34109749 </v>
   <v>       0.46700109      -0.07645350      -0.38953422 </v>
   <v>      -0.45949601      -0.01847154       0.45978515 </v>
   <v>       0.46373945      -0.03324740      -0.48076411 </v>
   <v>      -0.48380883      -0.03154292      -0.48294578 </v>
   <v>       0.43046740      -0.01716537      -0.38291126 </v>
   <v>       0.45849493      -0.00967351       0.40244262 </v>
   <v>      -0.46279506       0.00359119       0.33529755 </v>
   <v>      -0.48893723      -0.00813327       0.40086561 </v>
   <v>      -0.49257185       0.01598975       0.29881297 </v>
  </varray>
 </structure>
 <varray name="primitive_index" >
  <v type="int" >        1 </v>
  <v type="int" >       22 </v>
  <v type="int" >       27 </v>
  <v type="int" >        5 </v>
  <v type="int" >       25 </v>
  <v type="int" >       69 </v>
  <v type="int" >       21 </v>
  <v type="int" >       81 </v>
  <v type="int" >       11 </v>
  <v type="int" >       83 </v>
  <v type="int" >       82 </v>
  <v type="int" >       65 </v>
  <v type="int" >        3 </v>
  <v type="int" >      105 </v>
  <v type="int" >       70 </v>
  <v type="int" >      109 </v>
  <v type="int" >      111 </v>
  <v type="int" >       78 </v>
  <v type="int" >      110 </v>
  <v type="int" >       54 </v>
  <v type="int" >       67 </v>
  <v type="int" >      107 </v>
  <v type="int" >       16 </v>
  <v type="int" >       73 </v>
  <v type="int" >       55 </v>
  <v type="int" >      102 </v>
  <v type="int" >       63 </v>
  <v type="int" >       15 </v>
  <v type="int" >       20 </v>
  <v type="int" >       77 </v>
  <v type="int" >       56 </v>
  <v type="int" >       64 </v>
  <v type="int" >       87 </v>
  <v type="int" >       53 </v>
  <v type="int" >       19 </v>
  <v type="int" >      101 </v>
  <v type="int" >       98 </v>
  <v type="int" >      100 </v>
  <v type="int" >       74 </v>
  <v type="int" >       62 </v>
  <v type="int" >       43 </v>
  <v type="int" >       61 </v>
  <v type="int" >       41 </v>
  <v type="int" >       47 </v>
  <v type="int" >       89 </v>
  <v type="int" >       88 </v>
  <v type="int" >       40 </v>
  <v type="int" >       44 </v>
  <v type="int" >       93 </v>
  <v type="int" >       42 </v>
  <v type="int" >       33 </v>
  <v type="int" >       29 </v>
  <v type="int" >       97 </v>
  <v type="int" >       46 </v>
  <v type="int" >       37 </v>
  <v type="int" >        9 </v>
  <v type="int" >       99 </v>
  <v type="int" >       32 </v>
  <v type="int" >       10 </v>
  <v type="int" >       34 </v>
  <v type="int" >       39 </v>
  <v type="int" >       45 </v>
  <v type="int" >       92 </v>
  <v type="int" >       30 </v>
  <v type="int" >       90 </v>
  <v type="int" >       36 </v>
  <v type="int" >        7 </v>
  <v type="int" >       94 </v>
  <v type="int" >       80 </v>
  <v type="int" >        8 </v>
  <v type="int" >       38 </v>
  <v type="int" >       31 </v>
  <v type="int" >       48 </v>
  <v type="int" >       95 </v>
  <v type="int" >       91 </v>
  <v type="int" >       35 </v>
  <v type="int" >       57 </v>
  <v type="int" >       13 </v>
  <v type="int" >       58 </v>
  <v type="int" >       49 </v>
  <v type="int" >       18 </v>
  <v type="int" >       75 </v>
  <v type="int" >       79 </v>
  <v type="int" >       59 </v>
  <v type="int" >       14 </v>
  <v type="int" >      103 </v>
  <v type="int" >       96 </v>
  <v type="int" >       17 </v>
  <v type="int" >       52 </v>
  <v type="int" >       60 </v>
  <v type="int" >       76 </v>
  <v type="int" >       51 </v>
  <v type="int" >       50 </v>
  <v type="int" >      104 </v>
  <v type="int" >       66 </v>
  <v type="int" >      106 </v>
  <v type="int" >      112 </v>
  <v type="int" >        6 </v>
  <v type="int" >       68 </v>
  <v type="int" >        4 </v>
  <v type="int" >      108 </v>
  <v type="int" >       86 </v>
  <v type="int" >       72 </v>
  <v type="int" >       28 </v>
  <v type="int" >       85 </v>
  <v type="int" >      113 </v>
  <v type="int" >       26 </v>
  <v type="int" >       71 </v>
  <v type="int" >       12 </v>
  <v type="int" >      114 </v>
  <v type="int" >        2 </v>
  <v type="int" >       23 </v>
  <v type="int" >       24 </v>
  <v type="int" >       84 </v>
 </varray>
 <kpoints>
  <generation param="listgenerated">
   <i name="divisions" type="int">      20 </i>
   <v>       0.00000000       0.00000000       0.00000000 </v>
   <v>       0.50000000       0.00000000       0.00000000 </v>
   <v>       0.50203332       0.49796542       0.00000000 </v>
   <v>       0.50000000       0.50000000       0.00000000 </v>
   <v>       0.49796668       0.50203458       0.00000000 </v>
   <v>       0.00000000       0.50000000       0.00000000 </v>
   <v>       0.00000000       0.00000000       0.00000000 </v>
  </generation>
  <varray name="kpointlist" >
   <v>       0.00000000       0.00000000       0.00000000 </v>
   <v>       0.02631579       0.00000000       0.00000000 </v>
   <v>       0.05263158       0.00000000       0.00000000 </v>
   <v>       0.07894737       0.00000000       0.00000000 </v>
   <v>       0.10526316       0.00000000       0.00000000 </v>
   <v>       0.13157895       0.00000000       0.00000000 </v>
   <v>       0.15789474       0.00000000       0.00000000 </v>
   <v>       0.18421053       0.00000000       0.00000000 </v>
   <v>       0.21052632       0.00000000       0.00000000 </v>
   <v>       0.23684211       0.00000000       0.00000000 </v>
   <v>       0.26315789       0.00000000       0.00000000 </v>
   <v>       0.28947368       0.00000000       0.00000000 </v>
   <v>       0.31578947       0.00000000       0.00000000 </v>
   <v>       0.34210526       0.00000000       0.00000000 </v>
   <v>       0.36842105       0.00000000       0.00000000 </v>
   <v>       0.39473684       0.00000000       0.00000000 </v>
   <v>       0.42105263       0.00000000       0.00000000 </v>
   <v>       0.44736842       0.00000000       0.00000000 </v>
   <v>       0.47368421       0.00000000       0.00000000 </v>
   <v>       0.50000000       0.00000000       0.00000000 </v>
   <v>       0.50000000       0.00000000       0.00000000 </v>
   <v>       0.50010702       0.02620871       0.00000000 </v>
   <v>       0.50021403       0.05241741       0.00000000 </v>
   <v>       0.50032105       0.07862612       0.00000000 </v>
   <v>       0.50042807       0.10483482       0.00000000 </v>
   <v>       0.50053508       0.13104353       0.00000000 </v>
   <v>       0.50064210       0.15725224       0.00000000 </v>
   <v>       0.50074912       0.18346094       0.00000000 </v>
   <v>       0.50085614       0.20966965       0.00000000 </v>
   <v>       0.50096315       0.23587836       0.00000000 </v>
   <v>       0.50107017       0.26208706       0.00000000 </v>
   <v>       0.50117719       0.28829577       0.00000000 </v>
   <v>       0.50128420       0.31450447       0.00000000 </v>
   <v>       0.50139122       0.34071318       0.00000000 </v>
   <v>       0.50149824       0.36692189       0.00000000 </v>
   <v>       0.50160525       0.39313059       0.00000000 </v>
   <v>       0.50171227       0.41933930       0.00000000 </v>
   <v>       0.50181929       0.44554800       0.00000000 </v>
   <v>       0.50192631       0.47175671       0.00000000 </v>
   <v>       0.50203332       0.49796542       0.00000000 </v>
   <v>       0.50203332       0.49796542       0.00000000 </v>
   <v>       0.50192631       0.49807250       0.00000000 </v>
   <v>       0.50181929       0.49817958       0.00000000 </v>
   <v>       0.50171227       0.49828667       0.00000000 </v>
   <v>       0.50160525       0.49839375       0.00000000 </v>
   <v>       0.50149824       0.49850083       0.00000000 </v>
   <v>       0.50139122       0.49860792       0.00000000 </v>
   <v>       0.50128420       0.49871500       0.00000000 </v>
   <v>       0.50117719       0.49882208       0.00000000 </v>
   <v>       0.50107017       0.49892917       0.00000000 </v>
   <v>       0.50096315       0.49903625       0.00000000 </v>
   <v>       0.50085614       0.49914333       0.00000000 </v>
   <v>       0.50074912       0.49925042       0.00000000 </v>
   <v>       0.50064210       0.49935750       0.00000000 </v>
   <v>       0.50053508       0.49946458       0.00000000 </v>
   <v>       0.50042807       0.49957167       0.00000000 </v>
   <v>       0.50032105       0.49967875       0.00000000 </v>
   <v>       0.50021403       0.49978583       0.00000000 </v>
   <v>       0.50010702       0.49989292       0.00000000 </v>
   <v>       0.50000000       0.50000000       0.00000000 </v>
   <v>       0.50000000       0.50000000       0.00000000 </v>
   <v>       0.49989298       0.50010708       0.00000000 </v>
   <v>       0.49978597       0.50021417       0.00000000 </v>
   <v>       0.49967895       0.50032125       0.00000000 </v>
   <v>       0.49957193       0.50042833       0.00000000 </v>
   <v>       0.49946492       0.50053542       0.00000000 </v>
   <v>       0.49935790       0.50064250       0.00000000 </v>
   <v>       0.49925088       0.50074958       0.00000000 </v>
   <v>       0.49914386       0.50085667       0.00000000 </v>
   <v>       0.49903685       0.50096375       0.00000000 </v>
   <v>       0.49892983       0.50107083       0.00000000 </v>
   <v>       0.49882281       0.50117792       0.00000000 </v>
   <v>       0.49871580       0.50128500       0.00000000 </v>
   <v>       0.49860878       0.50139208       0.00000000 </v>
   <v>       0.49850176       0.50149917       0.00000000 </v>
   <v>       0.49839475       0.50160625       0.00000000 </v>
   <v>       0.49828773       0.50171333       0.00000000 </v>
   <v>       0.49818071       0.50182042       0.00000000 </v>
   <v>       0.49807369       0.50192750       0.00000000 </v>
   <v>       0.49796668       0.50203458       0.00000000 </v>
   <v>       0.49796668       0.50203458       0.00000000 </v>
   <v>       0.47175790       0.50192750       0.00000000 </v>
   <v>       0.44554913       0.50182042       0.00000000 </v>
   <v>       0.41934036       0.50171333       0.00000000 </v>
   <v>       0.39313159       0.50160625       0.00000000 </v>
   <v>       0.36692281       0.50149917       0.00000000 </v>
   <v>       0.34071404       0.50139208       0.00000000 </v>
   <v>       0.31450527       0.50128500       0.00000000 </v>
   <v>       0.28829650       0.50117792       0.00000000 </v>
   <v>       0.26208772       0.50107083       0.00000000 </v>
   <v>       0.23587895       0.50096375       0.00000000 </v>
   <v>       0.20967018       0.50085667       0.00000000 </v>
   <v>       0.18346141       0.50074958       0.00000000 </v>
   <v>       0.15725263       0.50064250       0.00000000 </v>
   <v>       0.13104386       0.50053542       0.00000000 </v>
   <v>       0.10483509       0.50042833       0.00000000 </v>
   <v>       0.07862632       0.50032125       0.00000000 </v>
   <v>       0.05241754       0.50021417       0.00000000 </v>
   <v>       0.02620877       0.50010708       0.00000000 </v>
   <v>      -0.00000000       0.50000000       0.00000000 </v>
   <v>       0.00000000       0.50000000       0.00000000 </v>
   <v>       0.00000000       0.47368421       0.00000000 </v>
   <v>       0.00000000       0.44736842       0.00000000 </v>
   <v>       0.00000000       0.42105263       0.00000000 </v>
   <v>       0.00000000       0.39473684       0.00000000 </v>
   <v>       0.00000000       0.36842105       0.00000000 </v>
   <v>       0.00000000       0.34210526       0.00000000 </v>
   <v>       0.00000000       0.31578947       0.00000000 </v>
   <v>       0.00000000       0.28947368       0.00000000 </v>
   <v>       0.00000000       0.26315789       0.00000000 </v>
   <v>       0.00000000       0.23684211       0.00000000 </v>
   <v>       0.00000000       0.21052632       0.00000000 </v>
   <v>       0.00000000       0.18421053       0.00000000 </v>
   <v>       0.00000000       0.15789474       0.00000000 </v>
   <v>       0.00000000       0.13157895       0.00000000 </v>
   <v>       0.00000000       0.10526316       0.00000000 </v>
   <v>       0.00000000       0.07894737       0.00000000 </v>
   <v>       0.00000000       0.05263158       0.00000000 </v>
   <v>       0.00000000       0.02631579       0.00000000 </v>
   <v>       0.00000000       0.00000000       0.00000000 </v>
  </varray>
  <varray name="weights" >
   <v>       0.00833333 </v>
   <v>       0.00833333 </v>
   <v>       0.00833333 </v>
   <v>       0.00833333 </v>
   <v>       0.00833333 </v>
   <v>       0.00833333 </v>
   <v>       0.00833333 </v>
   <v>       0.00833333 </v>
   <v>       0.00833333 </v>
   <v>       0.00833333 </v>
   <v>       0.00833333 </v>
   <v>       0.00833333 </v>
   <v>       0.00833333 </v>
   <v>       0.00833333 </v>
   <v>       0.00833333 </v>
   <v>       0.00833333 </v>
   <v>       0.00833333 </v>
   <v>       0.00833333 </v>
   <v>       0.00833333 </v>
   <v>       0.00833333 </v>
   <v>       0.00833333 </v>
   <v>       0.00833333 </v>
   <v>       0.00833333 </v>
   <v>       0.00833333 </v>
   <v>       0.00833333 </v>
   <v>       0.00833333 </v>
   <v>       0.00833333 </v>
   <v>       0.00833333 </v>
   <v>       0.00833333 </v>
   <v>       0.00833333 </v>
   <v>       0.00833333 </v>
   <v>       0.00833333 </v>
   <v>       0.00833333 </v>
   <v>       0.00833333 </v>
   <v>       0.00833333 </v>
   <v>       0.00833333 </v>
   <v>       0.00833333 </v>
   <v>       0.00833333 </v>
   <v>       0.00833333 </v>
   <v>       0.00833333 </v>
   <v>       0.00833333 </v>
   <v>       0.00833333 </v>
   <v>       0.00833333 </v>
   <v>       0.00833333 </v>
   <v>       0.00833333 </v>
   <v>       0.00833333 </v>
   <v>       0.00833333 </v>
   <v>       0.00833333 </v>
   <v>       0.00833333 </v>
   <v>       0.00833333 </v>
   <v>       0.00833333 </v>
   <v>       0.00833333 </v>
   <v>       0.00833333 </v>
   <v>       0.00833333 </v>
   <v>       0.00833333 </v>
   <v>       0.00833333 </v>
   <v>       0.00833333 </v>
   <v>       0.00833333 </v>
   <v>       0.00833333 </v>
   <v>       0.00833333 </v>
   <v>       0.00833333 </v>
   <v>       0.00833333 </v>
   <v>       0.00833333 </v>
   <v>       0.00833333 </v>
   <v>       0.00833333 </v>
   <v>       0.00833333 </v>
   <v>       0.00833333 </v>
   <v>       0.00833333 </v>
   <v>       0.00833333 </v>
   <v>       0.00833333 </v>
   <v>       0.00833333 </v>
   <v>       0.00833333 </v>
   <v>       0.00833333 </v>
   <v>       0.00833333 </v>
   <v>       0.00833333 </v>
   <v>       0.00833333 </v>
   <v>       0.00833333 </v>
   <v>       0.00833333 </v>
   <v>       0.00833333 </v>
   <v>       0.00833333 </v>
   <v>       0.00833333 </v>
   <v>       0.00833333 </v>
   <v>       0.00833333 </v>
   <v>       0.00833333 </v>
   <v>       0.00833333 </v>
   <v>       0.00833333 </v>
   <v>       0.00833333 </v>
   <v>       0.00833333 </v>
   <v>       0.00833333 </v>
   <v>       0.00833333 </v>
   <v>       0.00833333 </v>
   <v>       0.00833333 </v>
   <v>       0.00833333 </v>
   <v>       0.00833333 </v>
   <v>       0.00833333 </v>
   <v>       0.00833333 </v>
   <v>       0.00833333 </v>
   <v>       0.00833333 </v>
   <v>       0.00833333 </v>
   <v>       0.00833333 </v>
   <v>       0.00833333 </v>
   <v>       0.00833333 </v>
   <v>       0.00833333 </v>
   <v>       0.00833333 </v>
   <v>       0.00833333 </v>
   <v>       0.00833333 </v>
   <v>       0.00833333 </v>
   <v>       0.00833333 </v>
   <v>       0.00833333 </v>
   <v>       0.00833333 </v>
   <v>       0.00833333 </v>
   <v>       0.00833333 </v>
   <v>       0.00833333 </v>
   <v>       0.00833333 </v>
   <v>       0.00833333 </v>
   <v>       0.00833333 </v>
   <v>       0.00833333 </v>
   <v>       0.00833333 </v>
   <v>       0.00833333 </v>
   <v>       0.00833333 </v>
  </varray>
 </kpoints>
 <parameters>
  <separator name="general" >
   <i type="string" name="SYSTEM">Simulation for cell shape cell volume r</i>
   <i type="logical" name="LCOMPAT"> F  </i>
  </separator>
  <separator name="electronic" >
   <i type="string" name="PREC">high</i>
   <i name="ENMAX">    500.00000000</i>
   <i name="ENAUG">    644.87300000</i>
   <i name="EDIFF">      0.00001000</i>
   <i type="int" name="IALGO">    38</i>
   <i type="int" name="IWAVPR">    10</i>
   <i type="int" name="NBANDS">   240</i>
   <i name="NELECT">    342.00000000</i>
   <i type="int" name="TURBO">     0</i>
   <i type="int" name="IRESTART">     0</i>
   <i type="int" name="NREBOOT">     0</i>
   <i type="int" name="NMIN">     0</i>
   <i name="EREF">      0.00000000</i>
   <separator name="electronic smearing" >
    <i type="int" name="ISMEAR">     0</i>
    <i name="SIGMA">      0.01000000</i>
    <i name="KSPACING">      0.50000000</i>
    <i type="logical" name="KGAMMA"> T  </i>
   </separator>
   <separator name="electronic projectors" >
    <i type="logical" name="LREAL"> T  </i>
    <v name="ROPT">     -0.00040000     -0.00040000     -0.00040000</v>
    <i type="int" name="LMAXPAW">  -100</i>
    <i type="int" name="LMAXMIX">     2</i>
    <i type="logical" name="NLSPLINE"> F  </i>
   </separator>
   <separator name="electronic startup" >
    <i type="int" name="ISTART">     1</i>
    <i type="int" name="ICHARG">    11</i>
    <i type="int" name="INIWAV">     1</i>
   </separator>
   <separator name="electronic spin" >
    <i type="int" name="ISPIN">     1</i>
    <i type="logical" name="LNONCOLLINEAR"> F  </i>
    <v name="MAGMOM">      1.00000000      1.00000000      1.00000000      1.00000000      1.00000000      1.00000000      1.00000000      1.00000000      1.00000000      1.00000000      1.00000000      1.00000000      1.00000000      1.00000000      1.00000000      1.00000000      1.00000000      1.00000000      1.00000000      1.00000000
      1.00000000      1.00000000      1.00000000      1.00000000      1.00000000      1.00000000      1.00000000      1.00000000      1.00000000      1.00000000      1.00000000      1.00000000      1.00000000      1.00000000      1.00000000      1.00000000      1.00000000      1.00000000      1.00000000      1.00000000
      1.00000000      1.00000000      1.00000000      1.00000000      1.00000000      1.00000000      1.00000000      1.00000000      1.00000000      1.00000000      1.00000000      1.00000000      1.00000000      1.00000000      1.00000000      1.00000000      1.00000000      1.00000000      1.00000000      1.00000000
      1.00000000      1.00000000      1.00000000      1.00000000      1.00000000      1.00000000      1.00000000      1.00000000      1.00000000      1.00000000      1.00000000      1.00000000      1.00000000      1.00000000      1.00000000      1.00000000      1.00000000      1.00000000      1.00000000      1.00000000
      1.00000000      1.00000000      1.00000000      1.00000000      1.00000000      1.00000000      1.00000000      1.00000000      1.00000000      1.00000000      1.00000000      1.00000000      1.00000000      1.00000000      1.00000000      1.00000000      1.00000000      1.00000000      1.00000000      1.00000000
      1.00000000      1.00000000      1.00000000      1.00000000      1.00000000      1.00000000      1.00000000      1.00000000      1.00000000      1.00000000      1.00000000      1.00000000      1.00000000      1.00000000</v>
    <i name="NUPDOWN">     -1.00000000</i>
    <i type="logical" name="LSORBIT"> F  </i>
    <v name="SAXIS">      0.00000000      0.00000000      1.00000000</v>
    <i type="logical" name="LSPIRAL"> F  </i>
    <v name="QSPIRAL">      0.00000000      0.00000000      0.00000000</v>
    <i type="logical" name="LZEROZ"> F  </i>
   </separator>
   <separator name="electronic exchange-correlation" >
    <i type="logical" name="LASPH"> F  </i>
    <i type="logical" name="LMETAGGA"> F  </i>
   </separator>
   <separator name="electronic convergence" >
    <i type="int" name="NELM">   200</i>
    <i type="int" name="NELMDL">     0</i>
    <i type="int" name="NELMIN">     2</i>
    <i name="ENINI">    500.00000000</i>
    <separator name="electronic convergence detail" >
     <i type="logical" name="LDIAG"> T  </i>
     <i type="logical" name="LSUBROT"> F  </i>
     <i name="WEIMIN">      0.00000000</i>
     <i name="EBREAK">      0.00000001</i>
     <i name="DEPER">      0.30000000</i>
     <i type="int" name="NRMM">     4</i>
     <i name="TIME">      0.40000000</i>
    </separator>
   </separator>
   <separator name="electronic mixer" >
    <i name="AMIX">      0.40000000</i>
    <i name="BMIX">      1.00000000</i>
    <i name="AMIN">      0.10000000</i>
    <i name="AMIX_MAG">      1.60000000</i>
    <i name="BMIX_MAG">      1.00000000</i>
    <separator name="electronic mixer details" >
     <i type="int" name="IMIX">     4</i>
     <i type="logical" name="MIXFIRST"> F  </i>
     <i type="int" name="MAXMIX">   -45</i>
     <i name="WC">    100.00000000</i>
     <i type="int" name="INIMIX">     1</i>
     <i type="int" name="MIXPRE">     1</i>
     <i type="int" name="MREMOVE">     5</i>
    </separator>
   </separator>
   <separator name="electronic dipolcorrection" >
    <i type="logical" name="LDIPOL"> F  </i>
    <i type="logical" name="LMONO"> F  </i>
    <i type="int" name="IDIPOL">     0</i>
    <i name="EPSILON">      1.00000000</i>
    <v name="DIPOL">   -100.00000000   -100.00000000   -100.00000000</v>
    <i name="EFIELD">      0.00000000</i>
   </separator>
  </separator>
  <separator name="grids" >
   <i type="int" name="NGX">   192</i>
   <i type="int" name="NGY">   192</i>
   <i type="int" name="NGZ">   150</i>
   <i type="int" name="NGXF">   280</i>
   <i type="int" name="NGYF">   280</i>
   <i type="int" name="NGZF">   224</i>
   <i type="logical" name="ADDGRID"> F  </i>
  </separator>
  <separator name="ionic" >
   <i type="int" name="NSW">     0</i>
   <i type="int" name="IBRION">    -1</i>
   <i type="int" name="MDALGO">     0</i>
   <i type="int" name="ISIF">     2</i>
   <i name="PSTRESS">      0.00000000</i>
   <i name="EDIFFG">     -0.01000000</i>
   <i type="int" name="NFREE">     0</i>
   <i name="POTIM">      0.30000000</i>
   <i name="SMASS">     -3.00000000</i>
   <i name="SCALEE">      1.00000000</i>
  </separator>
  <separator name="ionic md" >
   <i name="TEBEG">      0.00010000</i>
   <i name="TEEND">      0.00010000</i>
   <i type="int" name="NBLOCK">     1</i>
   <i type="int" name="KBLOCK">     1</i>
   <i type="int" name="NPACO">   256</i>
   <i name="APACO">     16.00000000</i>
  </separator>
  <separator name="symmetry" >
   <i type="int" name="ISYM">     2</i>
   <i name="SYMPREC">      0.00001000</i>
  </separator>
  <separator name="dos" >
   <i type="int" name="LORBIT">     0</i>
   <v name="RWIGS">     -1.00000000     -1.00000000     -1.00000000</v>
   <i type="int" name="NEDOS">   301</i>
   <i name="EMIN">     10.00000000</i>
   <i name="EMAX">    -10.00000000</i>
   <i name="EFERMI">      0.00000000</i>
  </separator>
  <separator name="writing" >
   <i type="int" name="NWRITE">     0</i>
   <i type="logical" name="LWAVE"> F  </i>
   <i type="logical" name="LDOWNSAMPLE"> F  </i>
   <i type="logical" name="LCHARG"> F  </i>
   <i type="logical" name="LPARD"> F  </i>
   <i type="logical" name="LVTOT"> F  </i>
   <i type="logical" name="LVHAR"> F  </i>
   <i type="logical" name="LELF"> F  </i>
   <i type="logical" name="LOPTICS"> F  </i>
   <v name="STM">      0.00000000      0.00000000      0.00000000      0.00000000      0.00000000      0.00000000      0.00000000</v>
  </separator>
  <separator name="performance" >
   <i type="int" name="NPAR">    16</i>
   <i type="int" name="NSIM">     4</i>
   <i type="int" name="NBLK">    -1</i>
   <i type="logical" name="LPLANE"> T  </i>
   <i type="logical" name="LSCALAPACK"> T  </i>
   <i type="logical" name="LSCAAWARE"> F  </i>
   <i type="logical" name="LSCALU"> F  </i>
   <i type="logical" name="LASYNC"> F  </i>
   <i type="logical" name="LORBITALREAL"> F  </i>
  </separator>
  <separator name="miscellaneous" >
   <i type="int" name="IDIOT">     3</i>
   <i type="int" name="ISPECIAL">     0</i>
   <i type="logical" name="LMUSIC"> F  </i>
   <v name="POMASS">     14.00100000     12.01100000      1.00000000</v>
   <v name="DARWINR">      0.00000000      0.00000000      0.00000000</v>
   <v name="DARWINV">      1.00000000      1.00000000      1.00000000</v>
   <i type="logical" name="LCORR"> T  </i>
  </separator>
  <i type="logical" name="GGA_COMPAT"> T  </i>
  <i type="logical" name="LBERRY"> F  </i>
  <i type="int" name="ICORELEVEL">     0</i>
  <i type="logical" name="LDAU"> F  </i>
  <i type="int" name="I_CONSTRAINED_M">     0</i>
  <separator name="electronic exchange-correlation" >
   <i type="string" name="GGA">PE</i>
   <i type="int" name="VOSKOWN">     0</i>
   <i type="logical" name="LHFCALC"> F  </i>
   <i type="string" name="PRECFOCK"></i>
   <i type="logical" name="LSYMGRAD"> F  </i>
   <i type="logical" name="LHFONE"> F  </i>
   <i type="logical" name="LRHFCALC"> F  </i>
   <i type="logical" name="LTHOMAS"> F  </i>
   <i type="logical" name="LMODELHF"> F  </i>
   <i name="ENCUT4O">     -1.00000000</i>
   <i type="int" name="EXXOEP">     0</i>
   <i type="int" name="FOURORBIT">     0</i>
   <i name="AEXX">      0.00000000</i>
   <i name="HFALPHA">      0.00000000</i>
   <i name="MCALPHA">      0.00000000</i>
   <i name="ALDAX">      1.00000000</i>
   <i name="AGGAX">      1.00000000</i>
   <i name="ALDAC">      1.00000000</i>
   <i name="AGGAC">      1.00000000</i>
   <i type="int" name="NKREDX">     1</i>
   <i type="int" name="NKREDY">     1</i>
   <i type="int" name="NKREDZ">     1</i>
   <i type="logical" name="SHIFTRED"> F  </i>
   <i type="logical" name="ODDONLY"> F  </i>
   <i type="logical" name="EVENONLY"> F  </i>
   <i type="int" name="LMAXFOCK">     0</i>
   <i type="int" name="NMAXFOCKAE">     0</i>
   <i type="logical" name="LFOCKAEDFT"> F  </i>
   <i name="HFSCREEN">      0.00000000</i>
   <i name="HFSCREENC">      0.00000000</i>
   <i type="int" name="NBANDSGWLOW">     0</i>
  </separator>
  <separator name="vdW DFT" >
   <i type="logical" name="LUSE_VDW"> F  </i>
   <i name="Zab_VDW">     -0.84910000</i>
   <i name="PARAM1">      0.12340000</i>
   <i name="PARAM2">      1.00000000</i>
   <i name="PARAM3">      0.00000000</i>
  </separator>
  <separator name="model GW" >
   <i type="int" name="MODEL_GW">     0</i>
   <i name="MODEL_EPS0">     67.84048693</i>
   <i name="MODEL_ALPHA">      1.00000000</i>
  </separator>
  <separator name="linear response parameters" >
   <i type="logical" name="LEPSILON"> F  </i>
   <i type="logical" name="LRPA"> F  </i>
   <i type="logical" name="LNABLA"> F  </i>
   <i type="logical" name="LVEL"> F  </i>
   <i type="int" name="KINTER">     0</i>
   <i name="CSHIFT">      0.10000000</i>
   <i name="OMEGAMAX">     -1.00000000</i>
   <i name="DEG_THRESHOLD">      0.00200000</i>
   <i name="RTIME">     -0.10000000</i>
   <i name="WPLASMAI">      0.00000000</i>
   <v name="DFIELD">      0.00000000      0.00000000      0.00000000</v>
   <v name="WPLASMA">      0.00000000      0.00000000      0.00000000      0.00000000      0.00000000      0.00000000      0.00000000      0.00000000      0.00000000</v>
  </separator>
  <separator name="orbital magnetization" >
   <i type="logical" name="NUCIND"> F  </i>
   <v name="MAGPOS">      0.00000000      0.00000000      0.00000000</v>
   <i type="logical" name="LNICSALL"> T  </i>
   <i type="logical" name="ORBITALMAG"> F  </i>
   <i type="logical" name="LMAGBLOCH"> F  </i>
   <i type="logical" name="LCHIMAG"> F  </i>
   <i type="logical" name="LGAUGE"> T  </i>
   <i type="int" name="MAGATOM">     0</i>
   <v name="MAGDIPOL">      0.00000000      0.00000000      0.00000000</v>
   <v name="AVECCONST">      0.00000000      0.00000000      0.00000000</v>
  </separator>
  <separator name="response functions" >
   <i type="logical" name="LADDER"> F  </i>
   <i type="logical" name="LRPAFORCE"> F  </i>
   <i type="logical" name="LFXC"> F  </i>
   <i type="logical" name="LHARTREE"> T  </i>
   <i type="int" name="IBSE">     0</i>
   <v type="int" name="KPOINT">    -1     0     0     0</v>
   <i type="logical" name="LTCTE"> F  </i>
   <i type="logical" name="LTETE"> F  </i>
   <i type="logical" name="LTRIPLET"> F  </i>
   <i type="logical" name="LFXCEPS"> F  </i>
   <i type="logical" name="LFXHEG"> F  </i>
   <i type="int" name="NATURALO">     2</i>
   <i type="logical" name="L2ORDER"> F  </i>
   <i type="logical" name="LMP2LT"> F  </i>
   <i type="logical" name="LUSEW"> F  </i>
   <i name="ENCUTGW">     -2.00000000</i>
   <i name="ENCUTGWSOFT">     -2.00000000</i>
   <i name="ENCUTLF">     -1.00000000</i>
   <i type="int" name="LMAXMP2">    -1</i>
   <i name="SCISSOR">      0.00000000</i>
   <i type="int" name="NOMEGA">     0</i>
   <i type="int" name="NOMEGAR">     0</i>
   <i type="int" name="NBANDSGW">    -1</i>
   <i type="int" name="NBANDSO">    -1</i>
   <i type="int" name="NBANDSV">    -1</i>
   <i type="int" name="NELM">   200</i>
   <i type="int" name="NELMHF">     1</i>
   <i type="int" name="DIM">     3</i>
   <i type="int" name="ANTIRES">     0</i>
   <i name="OMEGAMAX">    -30.00000000</i>
   <i name="OMEGAMIN">    -30.00000000</i>
   <i name="OMEGATL">   -200.00000000</i>
   <i type="int" name="OMEGAGRID">   140</i>
   <i name="CSHIFT">     -0.10000000</i>
   <i type="logical" name="SELFENERGY"> F  </i>
   <i type="logical" name="LSPECTRAL"> F  </i>
   <i type="logical" name="LSPECTRALGW"> F  </i>
   <i type="logical" name="LSINGLES"> F  </i>
   <i type="logical" name="LFERMIGW"> F  </i>
   <i type="logical" name="ODDONLYGW"> F  </i>
   <i type="logical" name="EVENONLYGW"> F  </i>
   <i type="int" name="NKREDLFX">     1</i>
   <i type="int" name="NKREDLFY">     1</i>
   <i type="int" name="NKREDLFZ">     1</i>
   <i type="int" name="MAXMEM">  2800</i>
   <i type="int" name="TELESCOPE">     0</i>
   <i type="int" name="TAUPAR">     1</i>
   <i type="int" name="OMEGAPAR">    -1</i>
   <i name="LAMBDA">      1.00000000</i>
  </separator>
  <separator name="External order field" >
   <i name="OFIELD_KAPPA">      0.00000000</i>
   <v name="OFIELD_K">      0.00000000      0.00000000      0.00000000</v>
   <i name="OFIELD_Q6_NEAR">      0.00000000</i>
   <i name="OFIELD_Q6_FAR">      0.00000000</i>
   <i name="OFIELD_A">      0.00000000</i>
  </separator>
  <separator name="solvation model" >
   <i type="logical" name="LSOL"> F  </i>
  </separator>
 </parameters>
 <atominfo>
  <atoms>     114 </atoms>
  <types>       3 </types>
  <array name="atoms" >
   <dimension dim="1">ion</dimension>
   <field type="string">element</field>
   <field type="int">atomtype</field>
   <set>
    <rc><c>N </c><c>   1</c></rc>
    <rc><c>N </c><c>   1</c></rc>
    <rc><c>N </c><c>   1</c></rc>
    <rc><c>N </c><c>   1</c></rc>
    <rc><c>N </c><c>   1</c></rc>
    <rc><c>N </c><c>   1</c></rc>
    <rc><c>N </c><c>   1</c></rc>
    <rc><c>N </c><c>   1</c></rc>
    <rc><c>N </c><c>   1</c></rc>
    <rc><c>N </c><c>   1</c></rc>
    <rc><c>N </c><c>   1</c></rc>
    <rc><c>N </c><c>   1</c></rc>
    <rc><c>C </c><c>   2</c></rc>
    <rc><c>C </c><c>   2</c></rc>
    <rc><c>C </c><c>   2</c></rc>
    <rc><c>C </c><c>   2</c></rc>
    <rc><c>C </c><c>   2</c></rc>
    <rc><c>C </c><c>   2</c></rc>
    <rc><c>C </c><c>   2</c></rc>
    <rc><c>C </c><c>   2</c></rc>
    <rc><c>C </c><c>   2</c></rc>
    <rc><c>C </c><c>   2</c></rc>
    <rc><c>C </c><c>   2</c></rc>
    <rc><c>C </c><c>   2</c></rc>
    <rc><c>C </c><c>   2</c></rc>
    <rc><c>C </c><c>   2</c></rc>
    <rc><c>C </c><c>   2</c></rc>
    <rc><c>C </c><c>   2</c></rc>
    <rc><c>C </c><c>   2</c></rc>
    <rc><c>C </c><c>   2</c></rc>
    <rc><c>C </c><c>   2</c></rc>
    <rc><c>C </c><c>   2</c></rc>
    <rc><c>C </c><c>   2</c></rc>
    <rc><c>C </c><c>   2</c></rc>
    <rc><c>C </c><c>   2</c></rc>
    <rc><c>C </c><c>   2</c></rc>
    <rc><c>C </c><c>   2</c></rc>
    <rc><c>C </c><c>   2</c></rc>
    <rc><c>C </c><c>   2</c></rc>
    <rc><c>C </c><c>   2</c></rc>
    <rc><c>C </c><c>   2</c></rc>
    <rc><c>C </c><c>   2</c></rc>
    <rc><c>C </c><c>   2</c></rc>
    <rc><c>C </c><c>   2</c></rc>
    <rc><c>C </c><c>   2</c></rc>
    <rc><c>C </c><c>   2</c></rc>
    <rc><c>C </c><c>   2</c></rc>
    <rc><c>C </c><c>   2</c></rc>
    <rc><c>C </c><c>   2</c></rc>
    <rc><c>C </c><c>   2</c></rc>
    <rc><c>C </c><c>   2</c></rc>
    <rc><c>C </c><c>   2</c></rc>
    <rc><c>C </c><c>   2</c></rc>
    <rc><c>C </c><c>   2</c></rc>
    <rc><c>C </c><c>   2</c></rc>
    <rc><c>C </c><c>   2</c></rc>
    <rc><c>C </c><c>   2</c></rc>
    <rc><c>C </c><c>   2</c></rc>
    <rc><c>C </c><c>   2</c></rc>
    <rc><c>C </c><c>   2</c></rc>
    <rc><c>C </c><c>   2</c></rc>
    <rc><c>C </c><c>   2</c></rc>
    <rc><c>C </c><c>   2</c></rc>
    <rc><c>C </c><c>   2</c></rc>
    <rc><c>C </c><c>   2</c></rc>
    <rc><c>C </c><c>   2</c></rc>
    <rc><c>C </c><c>   2</c></rc>
    <rc><c>C </c><c>   2</c></rc>
    <rc><c>C </c><c>   2</c></rc>
    <rc><c>C </c><c>   2</c></rc>
    <rc><c>C </c><c>   2</c></rc>
    <rc><c>C </c><c>   2</c></rc>
    <rc><c>H </c><c>   3</c></rc>
    <rc><c>H </c><c>   3</c></rc>
    <rc><c>H </c><c>   3</c></rc>
    <rc><c>H </c><c>   3</c></rc>
    <rc><c>H </c><c>   3</c></rc>
    <rc><c>H </c><c>   3</c></rc>
    <rc><c>H </c><c>   3</c></rc>
    <rc><c>H </c><c>   3</c></rc>
    <rc><c>H </c><c>   3</c></rc>
    <rc><c>H </c><c>   3</c></rc>
    <rc><c>H </c><c>   3</c></rc>
    <rc><c>H </c><c>   3</c></rc>
    <rc><c>H </c><c>   3</c></rc>
    <rc><c>H </c><c>   3</c></rc>
    <rc><c>H </c><c>   3</c></rc>
    <rc><c>H </c><c>   3</c></rc>
    <rc><c>H </c><c>   3</c></rc>
    <rc><c>H </c><c>   3</c></rc>
    <rc><c>H </c><c>   3</c></rc>
    <rc><c>H </c><c>   3</c></rc>
    <rc><c>H </c><c>   3</c></rc>
    <rc><c>H </c><c>   3</c></rc>
    <rc><c>H </c><c>   3</c></rc>
    <rc><c>H </c><c>   3</c></rc>
    <rc><c>H </c><c>   3</c></rc>
    <rc><c>H </c><c>   3</c></rc>
    <rc><c>H </c><c>   3</c></rc>
    <rc><c>H </c><c>   3</c></rc>
    <rc><c>H </c><c>   3</c></rc>
    <rc><c>H </c><c>   3</c></rc>
    <rc><c>H </c><c>   3</c></rc>
    <rc><c>H </c><c>   3</c></rc>
    <rc><c>H </c><c>   3</c></rc>
    <rc><c>H </c><c>   3</c></rc>
    <rc><c>H </c><c>   3</c></rc>
    <rc><c>H </c><c>   3</c></rc>
    <rc><c>H </c><c>   3</c></rc>
    <rc><c>H </c><c>   3</c></rc>
    <rc><c>H </c><c>   3</c></rc>
    <rc><c>H </c><c>   3</c></rc>
    <rc><c>H </c><c>   3</c></rc>
    <rc><c>H </c><c>   3</c></rc>
   </set>
  </array>
  <array name="atomtypes" >
   <dimension dim="1">type</dimension>
   <field type="int">atomspertype</field>
   <field type="string">element</field>
   <field>mass</field>
   <field>valence</field>
   <field type="string">pseudopotential</field>
   <set>
    <rc><c>  12</c><c>N </c><c>     14.00100000</c><c>      5.00000000</c><c>  PAW_PBE N 08Apr2002                   </c></rc>
    <rc><c>  60</c><c>C </c><c>     12.01100000</c><c>      4.00000000</c><c>  PAW_PBE C 08Apr2002                   </c></rc>
    <rc><c>  42</c><c>H </c><c>      1.00000000</c><c>      1.00000000</c><c>  PAW_PBE H 15Jun2001                   </c></rc>
   </set>
  </array>
 </atominfo>
 <structure name="initialpos" >
  <crystal>
   <varray name="basis" >
    <v>      25.38281785       0.06009259       0.00000000 </v>
    <v>       0.04359805      25.39068947       0.00000000 </v>
    <v>       0.00000000       0.00000000      20.00000000 </v>
   </varray>
   <i name="volume">  12889.69251629 </i>
   <varray name="rec_basis" >
    <v>       0.03939689      -0.00006765       0.00000000 </v>
    <v>      -0.00009324       0.03938468       0.00000000 </v>
    <v>       0.00000000       0.00000000       0.05000000 </v>
   </varray>
  </crystal>
  <varray name="positions" >
   <v>       0.99295869       0.51650665       0.40505327 </v>
   <v>       0.45849493       0.99032649       0.40244262 </v>
   <v>       0.98546922       0.37915180       0.45573896 </v>
   <v>       0.59527817       0.98518719       0.45618827 </v>
   <v>       0.98106130       0.59489132       0.46167304 </v>
   <v>       0.37957510       0.97858570       0.45787982 </v>
   <v>       0.04301678       0.04830346       0.50201324 </v>
   <v>       0.92781435       0.04091676       0.50375082 </v>
   <v>       0.93160737       0.92524236       0.50627786 </v>
   <v>       0.04686841       0.93266255       0.50404063 </v>
   <v>       0.96946081       0.45776087       0.51809071 </v>
   <v>       0.51619117       0.96845708       0.51705422 </v>
   <v>       0.21146113       0.97466712       0.44755265 </v>
   <v>       0.26610177       0.97689546       0.44679447 </v>
   <v>       0.97688000       0.76273853       0.45210735 </v>
   <v>       0.97915491       0.70811204       0.45125014 </v>
   <v>       0.70875379       0.99178441       0.44890711 </v>
   <v>       0.76337409       0.99437955       0.44968458 </v>
   <v>       0.99351671       0.21123837       0.44621841 </v>
   <v>       0.99099327       0.26586673       0.44633436 </v>
   <v>       0.00615522       0.43848118       0.33648606 </v>
   <v>       0.99395091       0.46395658       0.40237979 </v>
   <v>       0.53720494       0.00359119       0.33529755 </v>
   <v>       0.51106277       0.99186673       0.40086561 </v>
   <v>       0.98260117       0.43394267       0.46044400 </v>
   <v>       0.54050399       0.98152846       0.45978515 </v>
   <v>       0.98193856       0.54013430       0.46354235 </v>
   <v>       0.43431620       0.97965350       0.46061071 </v>
   <v>       0.07965573       0.12908431       0.49965655 </v>
   <v>       0.11978046       0.09266488       0.49924368 </v>
   <v>       0.09679530       0.04114853       0.50154798 </v>
   <v>       0.03066160       0.10115533       0.50091620 </v>
   <v>       0.97980468       0.12329073       0.50191722 </v>
   <v>       0.93220083       0.09470561       0.50316576 </v>
   <v>       0.87472747       0.03122330       0.50443610 </v>
   <v>       0.84457352       0.08026598       0.50436348 </v>
   <v>       0.88041842       0.11985999       0.50292455 </v>
   <v>       0.85093607       0.98106458       0.50637487 </v>
   <v>       0.87783027       0.93254905       0.50770645 </v>
   <v>       0.94385407       0.87240123       0.50707994 </v>
   <v>       0.89477374       0.84461845       0.50986358 </v>
   <v>       0.85470488       0.88111082       0.50950847 </v>
   <v>       0.99476843       0.85025814       0.50621874 </v>
   <v>       0.04241500       0.87885780       0.50495431 </v>
   <v>       0.09996903       0.94238312       0.50296144 </v>
   <v>       0.13006568       0.89330257       0.50358432 </v>
   <v>       0.09419246       0.85372420       0.50372580 </v>
   <v>       0.12376476       0.99261649       0.50217112 </v>
   <v>       0.18238701       0.99524806       0.50168669 </v>
   <v>       0.29347958       0.00051941       0.50006384 </v>
   <v>       0.26466457       0.02168753       0.55375787 </v>
   <v>       0.20988588       0.01865867       0.55485036 </v>
   <v>       0.99771309       0.79164770       0.50608062 </v>
   <v>       0.00296279       0.68055220       0.50438671 </v>
   <v>       0.02428232       0.70919061       0.55799021 </v>
   <v>       0.02126689       0.76398624       0.55914954 </v>
   <v>       0.79226426       0.97852456       0.50643833 </v>
   <v>       0.76468735       0.95998611       0.56250667 </v>
   <v>       0.70989418       0.95715838       0.56176089 </v>
   <v>       0.68107164       0.97299762       0.50508303 </v>
   <v>       0.97671952       0.18192031       0.50204644 </v>
   <v>       0.95711230       0.20907610       0.55799969 </v>
   <v>       0.97132681       0.29311412       0.50247232 </v>
   <v>       0.95431661       0.26386338       0.55811122 </v>
   <v>       0.00590119       0.62302628       0.50458260 </v>
   <v>       0.62377275       0.96926722       0.50583477 </v>
   <v>       0.96805474       0.35042707       0.50420697 </v>
   <v>       0.35097918       0.00341176       0.50054355 </v>
   <v>       0.96846359       0.51019871       0.52145665 </v>
   <v>       0.95117884       0.53433885       0.58671369 </v>
   <v>       0.46373945       0.96675260       0.51923589 </v>
   <v>       0.43912428       0.94924862       0.58400846 </v>
   <v>       0.00373519       0.28865175       0.40309348 </v>
   <v>       0.00822904       0.19033153       0.40230687 </v>
   <v>       0.78465295       0.00852313       0.40584990 </v>
   <v>       0.68633457       0.00374072       0.40489498 </v>
   <v>       0.95929185       0.78399930       0.41023007 </v>
   <v>       0.96330992       0.68570079       0.40936252 </v>
   <v>       0.28867199       0.96112126       0.40487752 </v>
   <v>       0.19035382       0.95710995       0.40564771 </v>
   <v>       0.01914937       0.46852137       0.30086025 </v>
   <v>       0.03649612       0.40785437       0.34214949 </v>
   <v>       0.97106553       0.41873274       0.31631024 </v>
   <v>       0.50742815       0.01598975       0.29881297 </v>
   <v>       0.56729687       0.03420570       0.34109749 </v>
   <v>       0.55777306       0.96846544       0.31608179 </v>
   <v>       0.93909930       0.28458888       0.60195390 </v>
   <v>       0.94424206       0.18673686       0.60159116 </v>
   <v>       0.08321486       0.17161846       0.49899834 </v>
   <v>       0.16171670       0.10040316       0.49737701 </v>
   <v>       0.01602450       0.01864265       0.50323564 </v>
   <v>       0.95863494       0.95487290       0.50467107 </v>
   <v>       0.87279299       0.16193639       0.50175463 </v>
   <v>       0.80194818       0.08369430       0.50538705 </v>
   <v>       0.78663660       0.94808692       0.60694420 </v>
   <v>       0.68881919       0.94274249       0.60568238 </v>
   <v>       0.81270622       0.87353487       0.51041967 </v>
   <v>       0.89105306       0.80213425       0.51192227 </v>
   <v>       0.17267599       0.88965656       0.50384392 </v>
   <v>       0.10193267       0.81166897       0.50297331 </v>
   <v>       0.03716718       0.78589198       0.60144045 </v>
   <v>       0.04284758       0.68813414       0.59946159 </v>
   <v>       0.18787946       0.03427487       0.59734231 </v>
   <v>       0.28557671       0.04007235       0.59535918 </v>
   <v>       0.03142267       0.60525282       0.54340028 </v>
   <v>       0.60564855       0.95206269       0.55094054 </v>
   <v>       0.95003470       0.36837918       0.54900663 </v>
   <v>       0.36839960       0.02886849       0.53951578 </v>
   <v>       0.92990987       0.57160778       0.57912587 </v>
   <v>       0.92564556       0.50642494       0.61301386 </v>
   <v>       0.98492571       0.54250414       0.61963164 </v>
   <v>       0.40204924       0.92811180       0.57576434 </v>
   <v>       0.46700109       0.92354650       0.61046578 </v>
   <v>       0.43046740       0.98283463       0.61708874 </v>
  </varray>
 </structure>
 <calculation>
  <scstep>
   <time name="dav">  934.50  944.65</time>
   <time name="total">  934.70  944.86</time>
   <energy>
    <i name="alphaZ">     42.26971766 </i>
    <i name="ewald">  42743.62380891 </i>
    <i name="hartreedc"> -52996.56660481 </i>
    <i name="XCdc">   1182.02834666 </i>
    <i name="pawpsdc">  31460.77140169 </i>
    <i name="pawaedc"> -31519.73588464 </i>
    <i name="eentropy">     -0.00000000 </i>
    <i name="bandstr">  -4230.39315749 </i>
    <i name="atom">  12527.75354875 </i>
    <i name="e_fr_energy">   -790.24882327 </i>
    <i name="e_wo_entrp">   -790.24882327 </i>
    <i name="e_0_energy">   -790.24882327 </i>
   </energy>
  </scstep>
  <scstep>
   <time name="dav"> 1076.53 1089.70</time>
   <time name="total"> 1076.53 1089.71</time>
   <energy>
    <i name="e_fr_energy">   -791.10826020 </i>
    <i name="e_wo_entrp">   -791.10826020 </i>
    <i name="e_0_energy">   -791.10826020 </i>
   </energy>
  </scstep>
  <scstep>
   <time name="dav"> 1167.48 1181.42</time>
   <time name="total"> 1167.48 1181.42</time>
   <energy>
    <i name="e_fr_energy">   -791.13239939 </i>
    <i name="e_wo_entrp">   -791.13239939 </i>
    <i name="e_0_energy">   -791.13239939 </i>
   </energy>
  </scstep>
  <scstep>
   <time name="dav"> 1064.66 1077.59</time>
   <time name="total"> 1064.66 1077.59</time>
   <energy>
    <i name="e_fr_energy">   -791.13280910 </i>
    <i name="e_wo_entrp">   -791.13280910 </i>
    <i name="e_0_energy">   -791.13280910 </i>
   </energy>
  </scstep>
  <scstep>
   <time name="dav"> 1096.59 1109.91</time>
   <time name="total"> 1096.59 1109.91</time>
   <energy>
    <i name="e_fr_energy">   -791.13283023 </i>
    <i name="e_wo_entrp">   -791.13283023 </i>
    <i name="e_0_energy">   -791.13283023 </i>
   </energy>
  </scstep>
  <scstep>
   <time name="dav">  845.81  855.79</time>
   <time name="total">  845.81  855.79</time>
   <energy>
    <i name="alphaZ">     42.26971766 </i>
    <i name="ewald">  42743.62380891 </i>
    <i name="hartreedc"> -52996.56660481 </i>
    <i name="XCdc">   1182.02834666 </i>
    <i name="pawpsdc">  31460.77140169 </i>
    <i name="pawaedc"> -31519.73588464 </i>
    <i name="eentropy">     -0.00000000 </i>
    <i name="bandstr">  -4231.27716502 </i>
    <i name="atom">  12527.75354875 </i>
    <i name="e_fr_energy">   -791.13283080 </i>
    <i name="e_wo_entrp">   -791.13283080 </i>
    <i name="e_0_energy">   -791.13283080 </i>
   </energy>
  </scstep>
  <structure>
   <crystal>
    <varray name="basis" >
     <v>      25.38281785       0.06009259       0.00000000 </v>
     <v>       0.04359805      25.39068947       0.00000000 </v>
     <v>       0.00000000       0.00000000      20.00000000 </v>
    </varray>
    <i name="volume">  12889.69251629 </i>
    <varray name="rec_basis" >
     <v>       0.03939689      -0.00006765       0.00000000 </v>
     <v>      -0.00009324       0.03938468       0.00000000 </v>
     <v>       0.00000000       0.00000000       0.05000000 </v>
    </varray>
   </crystal>
   <varray name="positions" >
    <v>       0.99295869       0.51650665       0.40505327 </v>
    <v>       0.45849493       0.99032649       0.40244262 </v>
    <v>       0.98546922       0.37915180       0.45573896 </v>
    <v>       0.59527817       0.98518719       0.45618827 </v>
    <v>       0.98106130       0.59489132       0.46167304 </v>
    <v>       0.37957510       0.97858570       0.45787982 </v>
    <v>       0.04301678       0.04830346       0.50201324 </v>
    <v>       0.92781435       0.04091676       0.50375082 </v>
    <v>       0.93160737       0.92524236       0.50627786 </v>
    <v>       0.04686841       0.93266255       0.50404063 </v>
    <v>       0.96946081       0.45776087       0.51809071 </v>
    <v>       0.51619117       0.96845708       0.51705422 </v>
    <v>       0.21146113       0.97466712       0.44755265 </v>
    <v>       0.26610177       0.97689546       0.44679447 </v>
    <v>       0.97688000       0.76273853       0.45210735 </v>
    <v>       0.97915491       0.70811204       0.45125014 </v>
    <v>       0.70875379       0.99178441       0.44890711 </v>
    <v>       0.76337409       0.99437955       0.44968458 </v>
    <v>       0.99351671       0.21123837       0.44621841 </v>
    <v>       0.99099327       0.26586673       0.44633436 </v>
    <v>       0.00615522       0.43848118       0.33648606 </v>
    <v>       0.99395091       0.46395658       0.40237979 </v>
    <v>       0.53720494       0.00359119       0.33529755 </v>
    <v>       0.51106277       0.99186673       0.40086561 </v>
    <v>       0.98260117       0.43394267       0.46044400 </v>
    <v>       0.54050399       0.98152846       0.45978515 </v>
    <v>       0.98193856       0.54013430       0.46354235 </v>
    <v>       0.43431620       0.97965350       0.46061071 </v>
    <v>       0.07965573       0.12908431       0.49965655 </v>
    <v>       0.11978046       0.09266488       0.49924368 </v>
    <v>       0.09679530       0.04114853       0.50154798 </v>
    <v>       0.03066160       0.10115533       0.50091620 </v>
    <v>       0.97980468       0.12329073       0.50191722 </v>
    <v>       0.93220083       0.09470561       0.50316576 </v>
    <v>       0.87472747       0.03122330       0.50443610 </v>
    <v>       0.84457352       0.08026598       0.50436348 </v>
    <v>       0.88041842       0.11985999       0.50292455 </v>
    <v>       0.85093607       0.98106458       0.50637487 </v>
    <v>       0.87783027       0.93254905       0.50770645 </v>
    <v>       0.94385407       0.87240123       0.50707994 </v>
    <v>       0.89477374       0.84461845       0.50986358 </v>
    <v>       0.85470488       0.88111082       0.50950847 </v>
    <v>       0.99476843       0.85025814       0.50621874 </v>
    <v>       0.04241500       0.87885780       0.50495431 </v>
    <v>       0.09996903       0.94238312       0.50296144 </v>
    <v>       0.13006568       0.89330257       0.50358432 </v>
    <v>       0.09419246       0.85372420       0.50372580 </v>
    <v>       0.12376476       0.99261649       0.50217112 </v>
    <v>       0.18238701       0.99524806       0.50168669 </v>
    <v>       0.29347958       0.00051941       0.50006384 </v>
    <v>       0.26466457       0.02168753       0.55375787 </v>
    <v>       0.20988588       0.01865867       0.55485036 </v>
    <v>       0.99771309       0.79164770       0.50608062 </v>
    <v>       0.00296279       0.68055220       0.50438671 </v>
    <v>       0.02428232       0.70919061       0.55799021 </v>
    <v>       0.02126689       0.76398624       0.55914954 </v>
    <v>       0.79226426       0.97852456       0.50643833 </v>
    <v>       0.76468735       0.95998611       0.56250667 </v>
    <v>       0.70989418       0.95715838       0.56176089 </v>
    <v>       0.68107164       0.97299762       0.50508303 </v>
    <v>       0.97671952       0.18192031       0.50204644 </v>
    <v>       0.95711230       0.20907610       0.55799969 </v>
    <v>       0.97132681       0.29311412       0.50247232 </v>
    <v>       0.95431661       0.26386338       0.55811122 </v>
    <v>       0.00590119       0.62302628       0.50458260 </v>
    <v>       0.62377275       0.96926722       0.50583477 </v>
    <v>       0.96805474       0.35042707       0.50420697 </v>
    <v>       0.35097918       0.00341176       0.50054355 </v>
    <v>       0.96846359       0.51019871       0.52145665 </v>
    <v>       0.95117884       0.53433885       0.58671369 </v>
    <v>       0.46373945       0.96675260       0.51923589 </v>
    <v>       0.43912428       0.94924862       0.58400846 </v>
    <v>       0.00373519       0.28865175       0.40309348 </v>
    <v>       0.00822904       0.19033153       0.40230687 </v>
    <v>       0.78465295       0.00852313       0.40584990 </v>
    <v>       0.68633457       0.00374072       0.40489498 </v>
    <v>       0.95929185       0.78399930       0.41023007 </v>
    <v>       0.96330992       0.68570079       0.40936252 </v>
    <v>       0.28867199       0.96112126       0.40487752 </v>
    <v>       0.19035382       0.95710995       0.40564771 </v>
    <v>       0.01914937       0.46852137       0.30086025 </v>
    <v>       0.03649612       0.40785437       0.34214949 </v>
    <v>       0.97106553       0.41873274       0.31631024 </v>
    <v>       0.50742815       0.01598975       0.29881297 </v>
    <v>       0.56729687       0.03420570       0.34109749 </v>
    <v>       0.55777306       0.96846544       0.31608179 </v>
    <v>       0.93909930       0.28458888       0.60195390 </v>
    <v>       0.94424206       0.18673686       0.60159116 </v>
    <v>       0.08321486       0.17161846       0.49899834 </v>
    <v>       0.16171670       0.10040316       0.49737701 </v>
    <v>       0.01602450       0.01864265       0.50323564 </v>
    <v>       0.95863494       0.95487290       0.50467107 </v>
    <v>       0.87279299       0.16193639       0.50175463 </v>
    <v>       0.80194818       0.08369430       0.50538705 </v>
    <v>       0.78663660       0.94808692       0.60694420 </v>
    <v>       0.68881919       0.94274249       0.60568238 </v>
    <v>       0.81270622       0.87353487       0.51041967 </v>
    <v>       0.89105306       0.80213425       0.51192227 </v>
    <v>       0.17267599       0.88965656       0.50384392 </v>
    <v>       0.10193267       0.81166897       0.50297331 </v>
    <v>       0.03716718       0.78589198       0.60144045 </v>
    <v>       0.04284758       0.68813414       0.59946159 </v>
    <v>       0.18787946       0.03427487       0.59734231 </v>
    <v>       0.28557671       0.04007235       0.59535918 </v>
    <v>       0.03142267       0.60525282       0.54340028 </v>
    <v>       0.60564855       0.95206269       0.55094054 </v>
    <v>       0.95003470       0.36837918       0.54900663 </v>
    <v>       0.36839960       0.02886849       0.53951578 </v>
    <v>       0.92990987       0.57160778       0.57912587 </v>
    <v>       0.92564556       0.50642494       0.61301386 </v>
    <v>       0.98492571       0.54250414       0.61963164 </v>
    <v>       0.40204924       0.92811180       0.57576434 </v>
    <v>       0.46700109       0.92354650       0.61046578 </v>
    <v>       0.43046740       0.98283463       0.61708874 </v>
   </varray>
  </structure>
  <varray name="forces" >
   <v>      -0.00828844      -0.01145863      -0.00904204 </v>
   <v>       0.00725260       0.00303694      -0.01152544 </v>
   <v>       0.00038149       0.02741496      -0.01241222 </v>
   <v>      -0.01840507       0.00003697      -0.01350227 </v>
   <v>       0.00571194      -0.02837777      -0.01854692 </v>
   <v>       0.01744528       0.01112270      -0.01730147 </v>
   <v>       0.00346722       0.00790654      -0.00504635 </v>
   <v>       0.00054990      -0.00055703       0.00176135 </v>
   <v>      -0.00717725      -0.00434837       0.00191531 </v>
   <v>       0.00020848       0.00295548      -0.00067589 </v>
   <v>      -0.00973031       0.01395698       0.00879041 </v>
   <v>      -0.00828593      -0.00907887       0.00708447 </v>
   <v>       0.01463322      -0.01396667      -0.00253256 </v>
   <v>      -0.01150412      -0.00534182      -0.00552149 </v>
   <v>      -0.01158950      -0.01008038      -0.00292745 </v>
   <v>      -0.00416745       0.01240321      -0.00381042 </v>
   <v>       0.01126062       0.00324186      -0.00424636 </v>
   <v>      -0.01430589       0.01733749      -0.00332412 </v>
   <v>       0.01323735       0.01208468      -0.00113214 </v>
   <v>       0.00464606      -0.00975511      -0.00766044 </v>
   <v>       0.00043516      -0.00157559       0.00069347 </v>
   <v>       0.00416284       0.01148613      -0.00447745 </v>
   <v>       0.00286235       0.00233182      -0.00186963 </v>
   <v>      -0.01068220      -0.00193318      -0.01146990 </v>
   <v>      -0.00094313      -0.02067693       0.00281685 </v>
   <v>       0.02608264       0.00819342       0.00188825 </v>
   <v>       0.00782258       0.02373929      -0.00234424 </v>
   <v>      -0.02272840      -0.00190725      -0.00369026 </v>
   <v>      -0.00642629      -0.00002301       0.00424643 </v>
   <v>       0.00218609      -0.00727821       0.00144719 </v>
   <v>      -0.00518388       0.01426586       0.00811812 </v>
   <v>       0.01645265      -0.00222066      -0.01435168 </v>
   <v>      -0.01070986       0.01988210       0.00073402 </v>
   <v>      -0.00934159      -0.00421475       0.01479205 </v>
   <v>       0.00029911       0.00486796      -0.01593556 </v>
   <v>      -0.00099796      -0.00459900       0.00071153 </v>
   <v>       0.00407458      -0.00101310       0.00391934 </v>
   <v>      -0.01669318       0.00728596       0.00039279 </v>
   <v>       0.00816134      -0.01725498       0.01101415 </v>
   <v>      -0.01439036       0.00421825      -0.00626961 </v>
   <v>       0.00963946      -0.00042953       0.00320882 </v>
   <v>       0.00169469       0.00818904      -0.00319892 </v>
   <v>       0.00274206      -0.01954323       0.00051000 </v>
   <v>       0.00936491       0.00094601       0.01029222 </v>
   <v>      -0.00180689      -0.01210782      -0.01024446 </v>
   <v>      -0.00211208       0.00251465       0.00387321 </v>
   <v>      -0.00426211       0.00058140       0.00176151 </v>
   <v>       0.01997306      -0.00924015       0.00376495 </v>
   <v>      -0.01883070      -0.00218190       0.00212984 </v>
   <v>       0.02404185       0.00331914      -0.00157012 </v>
   <v>      -0.01040442       0.00347655       0.00605100 </v>
   <v>       0.01128399       0.01017590       0.00049940 </v>
   <v>      -0.00171459       0.02368444       0.00255958 </v>
   <v>       0.00306438      -0.02358629      -0.00490577 </v>
   <v>       0.00261585       0.01054152       0.00431762 </v>
   <v>       0.01189946      -0.01081125      -0.00209834 </v>
   <v>       0.02130612       0.00114617       0.00005246 </v>
   <v>      -0.01259281      -0.01306222       0.00149631 </v>
   <v>       0.00960518      -0.00416375       0.00353542 </v>
   <v>      -0.02633227      -0.00346486       0.00083911 </v>
   <v>      -0.00075682      -0.02795199       0.00299672 </v>
   <v>      -0.01727087       0.00902091       0.00152460 </v>
   <v>      -0.00267770       0.02686984      -0.00053365 </v>
   <v>      -0.00309885      -0.01263175       0.00575962 </v>
   <v>       0.00076557       0.01960031       0.01989033 </v>
   <v>       0.02156081      -0.00279130       0.01303785 </v>
   <v>      -0.00346429      -0.01952535       0.01308884 </v>
   <v>      -0.01454061      -0.00305833       0.01551230 </v>
   <v>       0.00424646      -0.00699347      -0.00227925 </v>
   <v>       0.00045071      -0.00131137      -0.00337285 </v>
   <v>       0.00824358       0.00979183       0.00730856 </v>
   <v>      -0.00068448      -0.00136550       0.00578837 </v>
   <v>       0.00065973       0.00179138      -0.00358411 </v>
   <v>       0.00071814       0.00160560       0.00022067 </v>
   <v>      -0.00291268      -0.00127794      -0.00094031 </v>
   <v>       0.00169028      -0.00137527       0.00440601 </v>
   <v>      -0.00041666      -0.00092364      -0.00047467 </v>
   <v>       0.00067300      -0.00214406      -0.00006879 </v>
   <v>      -0.00095934       0.00256130       0.00146394 </v>
   <v>      -0.00083437       0.00336174      -0.00075673 </v>
   <v>       0.00125965       0.00238570      -0.00346570 </v>
   <v>       0.00420413      -0.00212669      -0.00166301 </v>
   <v>       0.00105263      -0.00348438      -0.00087216 </v>
   <v>       0.00175299      -0.00122191       0.00271627 </v>
   <v>      -0.00200016       0.00128347      -0.00000542 </v>
   <v>       0.00060067       0.00564422       0.00520618 </v>
   <v>       0.00172713       0.00019172       0.00066972 </v>
   <v>       0.00130938       0.00100662       0.00096252 </v>
   <v>       0.00072169       0.00116872       0.00283034 </v>
   <v>       0.00692295       0.00125121      -0.00164090 </v>
   <v>      -0.00230047      -0.00443625       0.00293904 </v>
   <v>       0.00176904      -0.00125758      -0.00181766 </v>
   <v>      -0.00083010       0.00401744      -0.00222601 </v>
   <v>      -0.00360615      -0.00045777       0.00175024 </v>
   <v>       0.00110606      -0.00324592       0.00239102 </v>
   <v>      -0.00134318       0.00336045       0.00248167 </v>
   <v>       0.00047941      -0.00009689      -0.00022772 </v>
   <v>       0.00116543      -0.00455736       0.00060537 </v>
   <v>       0.00009973       0.00199107      -0.00135427 </v>
   <v>       0.00175243      -0.00130532      -0.00047052 </v>
   <v>      -0.00013517       0.00062431       0.00041762 </v>
   <v>      -0.00067640      -0.00038489       0.00247751 </v>
   <v>      -0.00180774       0.00276154      -0.00090362 </v>
   <v>      -0.00242063      -0.00152077       0.00002103 </v>
   <v>      -0.00782106       0.00092185      -0.00265059 </v>
   <v>      -0.00170979       0.00017065       0.00035607 </v>
   <v>       0.00319050      -0.00329204      -0.00050037 </v>
   <v>      -0.00005669       0.00040714       0.00186995 </v>
   <v>       0.00131106       0.00054118       0.00018201 </v>
   <v>      -0.00224005      -0.00161413      -0.00255918 </v>
   <v>      -0.00284329       0.00115545      -0.00274388 </v>
   <v>      -0.00252210      -0.00582945       0.00262882 </v>
   <v>      -0.00139943      -0.00389820       0.00298754 </v>
   <v>       0.00293809      -0.00149721      -0.00296305 </v>
  </varray>
  <varray name="stress" >
   <v>      -0.02233310      -0.00004030      -0.01094014 </v>
   <v>      -0.00004030      -0.02170502      -0.01112079 </v>
   <v>      -0.01094014      -0.01112079      -0.15350468 </v>
  </varray>
  <energy>
   <i name="e_fr_energy">   -793.50662878 </i>
   <i name="e_wo_entrp">   -793.50662878 </i>
   <i name="e_0_energy">     -0.00000000 </i>
  </energy>
  <time name="totalsc"> 7245.40 7334.46</time>
  <eigenvalues>
   <array>
    <dimension dim="1">band</dimension>
    <dimension dim="2">kpoint</dimension>
    <dimension dim="3">spin</dimension>
    <field>eigene</field>
    <field>occ</field>
    <set>
     <set comment="spin 1">
      <set comment="kpoint 1">
       <r>  -24.5089    1.0000 </r>
       <r>  -24.4738    1.0000 </r>
       <r>  -24.3664    1.0000 </r>
       <r>  -24.3645    1.0000 </r>
       <r>  -23.3563    1.0000 </r>
       <r>  -23.3553    1.0000 </r>
       <r>  -23.2552    1.0000 </r>
       <r>  -23.1861    1.0000 </r>
       <r>  -22.4896    1.0000 </r>
       <r>  -22.4873    1.0000 </r>
       <r>  -21.8581    1.0000 </r>
       <r>  -21.8559    1.0000 </r>
       <r>  -21.4892    1.0000 </r>
       <r>  -21.4181    1.0000 </r>
       <r>  -21.3611    1.0000 </r>
       <r>  -21.2889    1.0000 </r>
       <r>  -20.3639    1.0000 </r>
       <r>  -20.0923    1.0000 </r>
       <r>  -20.0182    1.0000 </r>
       <r>  -19.6914    1.0000 </r>
       <r>  -19.3698    1.0000 </r>
       <r>  -19.2467    1.0000 </r>
       <r>  -19.2205    1.0000 </r>
       <r>  -19.1442    1.0000 </r>
       <r>  -18.6432    1.0000 </r>
       <r>  -18.5761    1.0000 </r>
       <r>  -18.4810    1.0000 </r>
       <r>  -18.4609    1.0000 </r>
       <r>  -18.3967    1.0000 </r>
       <r>  -18.3545    1.0000 </r>
       <r>  -18.3216    1.0000 </r>
       <r>  -18.1172    1.0000 </r>
       <r>  -18.0662    1.0000 </r>
       <r>  -18.0225    1.0000 </r>
       <r>  -18.0026    1.0000 </r>
       <r>  -17.8808    1.0000 </r>
       <r>  -17.6179    1.0000 </r>
       <r>  -16.6925    1.0000 </r>
       <r>  -16.6498    1.0000 </r>
       <r>  -16.4944    1.0000 </r>
       <r>  -16.3546    1.0000 </r>
       <r>  -16.1293    1.0000 </r>
       <r>  -16.0666    1.0000 </r>
       <r>  -15.3560    1.0000 </r>
       <r>  -15.2960    1.0000 </r>
       <r>  -15.2204    1.0000 </r>
       <r>  -15.0625    1.0000 </r>
       <r>  -14.9847    1.0000 </r>
       <r>  -14.8878    1.0000 </r>
       <r>  -14.8487    1.0000 </r>
       <r>  -14.8047    1.0000 </r>
       <r>  -14.6872    1.0000 </r>
       <r>  -14.6071    1.0000 </r>
       <r>  -14.4851    1.0000 </r>
       <r>  -14.4513    1.0000 </r>
       <r>  -14.3791    1.0000 </r>
       <r>  -14.0434    1.0000 </r>
       <r>  -14.0132    1.0000 </r>
       <r>  -13.7815    1.0000 </r>
       <r>  -13.7175    1.0000 </r>
       <r>  -13.7055    1.0000 </r>
       <r>  -13.5766    1.0000 </r>
       <r>  -13.5130    1.0000 </r>
       <r>  -13.3098    1.0000 </r>
       <r>  -13.1638    1.0000 </r>
       <r>  -12.9387    1.0000 </r>
       <r>  -12.8809    1.0000 </r>
       <r>  -12.6707    1.0000 </r>
       <r>  -12.4660    1.0000 </r>
       <r>  -12.3510    1.0000 </r>
       <r>  -12.3440    1.0000 </r>
       <r>  -12.2608    1.0000 </r>
       <r>  -12.1544    1.0000 </r>
       <r>  -12.1314    1.0000 </r>
       <r>  -12.0933    1.0000 </r>
       <r>  -12.0674    1.0000 </r>
       <r>  -11.7637    1.0000 </r>
       <r>  -11.7447    1.0000 </r>
       <r>  -11.3753    1.0000 </r>
       <r>  -11.1748    1.0000 </r>
       <r>  -11.0009    1.0000 </r>
       <r>  -10.9142    1.0000 </r>
       <r>  -10.8986    1.0000 </r>
       <r>  -10.8519    1.0000 </r>
       <r>  -10.8044    1.0000 </r>
       <r>  -10.7512    1.0000 </r>
       <r>  -10.7050    1.0000 </r>
       <r>  -10.6661    1.0000 </r>
       <r>  -10.6600    1.0000 </r>
       <r>  -10.6269    1.0000 </r>
       <r>  -10.6239    1.0000 </r>
       <r>  -10.4991    1.0000 </r>
       <r>  -10.3142    1.0000 </r>
       <r>  -10.2790    1.0000 </r>
       <r>  -10.2208    1.0000 </r>
       <r>  -10.1356    1.0000 </r>
       <r>  -10.1199    1.0000 </r>
       <r>  -10.0962    1.0000 </r>
       <r>  -10.0457    1.0000 </r>
       <r>  -10.0081    1.0000 </r>
       <r>   -9.9956    1.0000 </r>
       <r>   -9.9600    1.0000 </r>
       <r>   -9.9135    1.0000 </r>
       <r>   -9.8382    1.0000 </r>
       <r>   -9.8000    1.0000 </r>
       <r>   -9.7423    1.0000 </r>
       <r>   -9.7395    1.0000 </r>
       <r>   -9.6586    1.0000 </r>
       <r>   -9.6056    1.0000 </r>
       <r>   -9.5470    1.0000 </r>
       <r>   -9.5370    1.0000 </r>
       <r>   -9.4874    1.0000 </r>
       <r>   -9.4401    1.0000 </r>
       <r>   -9.4208    1.0000 </r>
       <r>   -9.3788    1.0000 </r>
       <r>   -9.3452    1.0000 </r>
       <r>   -9.3231    1.0000 </r>
       <r>   -9.3098    1.0000 </r>
       <r>   -9.1704    1.0000 </r>
       <r>   -9.1475    1.0000 </r>
       <r>   -8.9434    1.0000 </r>
       <r>   -8.9347    1.0000 </r>
       <r>   -8.9164    1.0000 </r>
       <r>   -8.9099    1.0000 </r>
       <r>   -8.8359    1.0000 </r>
       <r>   -8.8176    1.0000 </r>
       <r>   -8.8044    1.0000 </r>
       <r>   -8.5731    1.0000 </r>
       <r>   -8.5425    1.0000 </r>
       <r>   -8.5170    1.0000 </r>
       <r>   -8.3634    1.0000 </r>
       <r>   -8.2756    1.0000 </r>
       <r>   -8.2572    1.0000 </r>
       <r>   -8.2208    1.0000 </r>
       <r>   -8.1721    1.0000 </r>
       <r>   -8.1131    1.0000 </r>
       <r>   -8.0966    1.0000 </r>
       <r>   -8.0533    1.0000 </r>
       <r>   -7.9784    1.0000 </r>
       <r>   -7.9150    1.0000 </r>
       <r>   -7.6646    1.0000 </r>
       <r>   -7.3084    1.0000 </r>
       <r>   -7.2845    1.0000 </r>
       <r>   -6.9311    1.0000 </r>
       <r>   -6.7742    1.0000 </r>
       <r>   -6.6113    1.0000 </r>
       <r>   -6.6028    1.0000 </r>
       <r>   -6.4639    1.0000 </r>
       <r>   -6.4427    1.0000 </r>
       <r>   -6.4085    1.0000 </r>
       <r>   -6.3889    1.0000 </r>
       <r>   -6.3263    1.0000 </r>
       <r>   -6.3154    1.0000 </r>
       <r>   -6.2536    1.0000 </r>
       <r>   -6.2282    1.0000 </r>
       <r>   -6.1026    1.0000 </r>
       <r>   -6.0826    1.0000 </r>
       <r>   -6.0640    1.0000 </r>
       <r>   -6.0537    1.0000 </r>
       <r>   -6.0200    1.0000 </r>
       <r>   -5.9487    1.0000 </r>
       <r>   -5.7883    1.0000 </r>
       <r>   -5.7730    1.0000 </r>
       <r>   -5.6623    1.0000 </r>
       <r>   -5.5640    1.0000 </r>
       <r>   -5.1764    1.0000 </r>
       <r>   -5.1718    1.0000 </r>
       <r>   -5.0035    1.0000 </r>
       <r>   -5.0000    1.0000 </r>
       <r>   -4.9225    1.0000 </r>
       <r>   -4.5668    1.0000 </r>
       <r>   -3.0128    0.0000 </r>
       <r>   -2.9817    0.0000 </r>
       <r>   -2.6428    0.0000 </r>
       <r>   -2.6069    0.0000 </r>
       <r>   -2.2745    0.0000 </r>
       <r>   -2.1739    0.0000 </r>
       <r>   -1.5354    0.0000 </r>
       <r>   -1.4739    0.0000 </r>
       <r>   -1.4670    0.0000 </r>
       <r>   -1.2250    0.0000 </r>
       <r>   -1.2219    0.0000 </r>
       <r>   -1.1165    0.0000 </r>
       <r>   -1.1101    0.0000 </r>
       <r>   -0.6773    0.0000 </r>
       <r>   -0.6747    0.0000 </r>
       <r>   -0.2989    0.0000 </r>
       <r>   -0.2475    0.0000 </r>
       <r>   -0.1738    0.0000 </r>
       <r>   -0.1400    0.0000 </r>
       <r>   -0.0682    0.0000 </r>
       <r>   -0.0498    0.0000 </r>
       <r>    0.0426    0.0000 </r>
       <r>    0.1255    0.0000 </r>
       <r>    0.1735    0.0000 </r>
       <r>    0.1983    0.0000 </r>
       <r>    0.2308    0.0000 </r>
       <r>    0.2564    0.0000 </r>
       <r>    0.3163    0.0000 </r>
       <r>    0.3780    0.0000 </r>
       <r>    0.3981    0.0000 </r>
       <r>    0.4474    0.0000 </r>
       <r>    0.4754    0.0000 </r>
       <r>    0.4928    0.0000 </r>
       <r>    0.5083    0.0000 </r>
       <r>    0.5314    0.0000 </r>
       <r>    0.5992    0.0000 </r>
       <r>    0.6048    0.0000 </r>
       <r>    0.6160    0.0000 </r>
       <r>    0.6812    0.0000 </r>
       <r>    0.6917    0.0000 </r>
       <r>    0.6992    0.0000 </r>
       <r>    0.7193    0.0000 </r>
       <r>    0.7587    0.0000 </r>
       <r>    0.7725    0.0000 </r>
       <r>    0.7846    0.0000 </r>
       <r>    0.8047    0.0000 </r>
       <r>    0.8305    0.0000 </r>
       <r>    0.8683    0.0000 </r>
       <r>    0.8925    0.0000 </r>
       <r>    0.9069    0.0000 </r>
       <r>    0.9448    0.0000 </r>
       <r>    0.9705    0.0000 </r>
       <r>    0.9816    0.0000 </r>
       <r>    1.0074    0.0000 </r>
       <r>    1.0228    0.0000 </r>
       <r>    1.0422    0.0000 </r>
       <r>    1.0539    0.0000 </r>
       <r>    1.0711    0.0000 </r>
       <r>    1.0904    0.0000 </r>
       <r>    1.1045    0.0000 </r>
       <r>    1.1224    0.0000 </r>
       <r>    1.1789    0.0000 </r>
       <r>    1.2189    0.0000 </r>
       <r>    1.2368    0.0000 </r>
       <r>    1.2412    0.0000 </r>
       <r>    1.2541    0.0000 </r>
       <r>    1.3141    0.0000 </r>
       <r>    1.3336    0.0000 </r>
       <r>    1.3499    0.0000 </r>
      </set>
      <set comment="kpoint 2">
       <r>  -24.5089    1.0000 </r>
       <r>  -24.4738    1.0000 </r>
       <r>  -24.3664    1.0000 </r>
       <r>  -24.3645    1.0000 </r>
       <r>  -23.3563    1.0000 </r>
       <r>  -23.3553    1.0000 </r>
       <r>  -23.2552    1.0000 </r>
       <r>  -23.1861    1.0000 </r>
       <r>  -22.4896    1.0000 </r>
       <r>  -22.4873    1.0000 </r>
       <r>  -21.8582    1.0000 </r>
       <r>  -21.8559    1.0000 </r>
       <r>  -21.4892    1.0000 </r>
       <r>  -21.4180    1.0000 </r>
       <r>  -21.3610    1.0000 </r>
       <r>  -21.2889    1.0000 </r>
       <r>  -20.3641    1.0000 </r>
       <r>  -20.0921    1.0000 </r>
       <r>  -20.0179    1.0000 </r>
       <r>  -19.6918    1.0000 </r>
       <r>  -19.3698    1.0000 </r>
       <r>  -19.2485    1.0000 </r>
       <r>  -19.2190    1.0000 </r>
       <r>  -19.1438    1.0000 </r>
       <r>  -18.6433    1.0000 </r>
       <r>  -18.5757    1.0000 </r>
       <r>  -18.4810    1.0000 </r>
       <r>  -18.4609    1.0000 </r>
       <r>  -18.3967    1.0000 </r>
       <r>  -18.3545    1.0000 </r>
       <r>  -18.3216    1.0000 </r>
       <r>  -18.1182    1.0000 </r>
       <r>  -18.0669    1.0000 </r>
       <r>  -18.0225    1.0000 </r>
[...]
       <r>   -20.6797     0.0000    32.0000 </r>
       <r>   -20.5849     0.0000    32.0000 </r>
       <r>   -20.4900     0.0000    32.0000 </r>
       <r>   -20.3951    11.7455    33.1143 </r>
       <r>   -20.3002     4.2070    34.0000 </r>
       <r>   -20.2054     0.0000    34.0000 </r>
       <r>   -20.1105     0.0064    34.0006 </r>
       <r>   -20.0156    21.8319    36.0717 </r>
       <r>   -19.9208    17.4318    37.9539 </r>
       <r>   -19.8259     0.1663    38.0158 </r>
       <r>   -19.7310     9.4080    39.5935 </r>
       <r>   -19.6362     3.1608    40.0000 </r>
       <r>   -19.5413     0.0000    40.0000 </r>
       <r>   -19.4464     0.0000    40.0000 </r>
       <r>   -19.3516    20.9942    41.9917 </r>
       <r>   -19.2567    29.5546    44.8056 </r>
       <r>   -19.1618    10.3675    46.0004 </r>
       <r>   -19.0670     8.2410    46.7824 </r>
       <r>   -18.9721     2.3928    47.0604 </r>
       <r>   -18.8772     9.4851    48.0000 </r>
       <r>   -18.7824     0.0000    48.0000 </r>
       <r>   -18.6875    10.1537    48.9633 </r>
       <r>   -18.5926     9.8446    50.0009 </r>
       <r>   -18.4978    14.2167    51.3496 </r>
       <r>   -18.4029    43.4057    56.1223 </r>
       <r>   -18.3080    52.1247    62.0958 </r>
       <r>   -18.2132    22.2637    64.4130 </r>
       <r>   -18.1183     5.3693    65.0594 </r>
       <r>   -18.0234    20.2743    67.1068 </r>
       <r>   -17.9286     3.3119    70.0000 </r>
       <r>   -17.8337     2.3463    70.2226 </r>
       <r>   -17.7388     4.6597    70.7088 </r>
       <r>   -17.6440     3.4783    71.1472 </r>
       <r>   -17.5491    28.9179    74.0000 </r>
       <r>   -17.4542     0.0000    74.0000 </r>
       <r>   -17.3593     0.0000    74.0000 </r>
       <r>   -17.2645     0.0000    74.0000 </r>
       <r>   -17.1696     0.0000    74.0000 </r>
       <r>   -17.0747     0.0000    74.0000 </r>
       <r>   -16.9799     0.0000    74.0000 </r>
       <r>   -16.8850     0.0000    74.0000 </r>
       <r>   -16.7901    14.6541    75.3902 </r>
       <r>   -16.6953     9.2925    76.4317 </r>
       <r>   -16.6004    11.2358    77.9997 </r>
       <r>   -16.5055     4.4207    78.4194 </r>
       <r>   -16.4107    11.4156    80.0000 </r>
       <r>   -16.3158    20.9459    81.9871 </r>
       <r>   -16.2209     0.0000    82.0000 </r>
       <r>   -16.1261     1.2908    82.1225 </r>
       <r>   -16.0312    11.5727    83.4832 </r>
       <r>   -15.9363    24.5272    86.0000 </r>
       <r>   -15.8415     0.0000    86.0000 </r>
       <r>   -15.7466     0.0000    86.0000 </r>
       <r>   -15.6517     0.0000    86.0000 </r>
       <r>   -15.5569    10.6716    87.0124 </r>
       <r>   -15.4620     5.5568    87.5940 </r>
       <r>   -15.3671     2.7421    87.8936 </r>
       <r>   -15.2723    20.2530    89.9214 </r>
       <r>   -15.1774     3.0813    90.2923 </r>
       <r>   -15.0825    19.0407    92.1900 </r>
       <r>   -14.9877    18.9801    94.2957 </r>
       <r>   -14.8928    27.5396    97.3476 </r>
       <r>   -14.7979    39.5411   101.7512 </r>
       <r>   -14.7031     0.0135   102.0013 </r>
       <r>   -14.6082    15.2384   103.4469 </r>
       <r>   -14.5133    32.7560   107.6255 </r>
       <r>   -14.4184    23.8865   110.0000 </r>
       <r>   -14.3236    21.0820   112.0000 </r>
       <r>   -14.2287     0.0000   112.0000 </r>
       <r>   -14.1338     0.0000   112.0000 </r>
       <r>   -14.0390     1.6328   112.1549 </r>
       <r>   -13.9441    37.0856   115.8730 </r>
       <r>   -13.8492     8.0502   117.5306 </r>
       <r>   -13.7544     6.9208   118.2735 </r>
       <r>   -13.6595    12.6579   120.3883 </r>
       <r>   -13.5646    32.9524   123.7264 </r>
       <r>   -13.4698    20.9971   126.0000 </r>
       <r>   -13.3749     0.0000   126.0000 </r>
       <r>   -13.2800    21.0819   128.0000 </r>
       <r>   -13.1852     0.0089   128.0008 </r>
       <r>   -13.0903    21.0731   130.0000 </r>
       <r>   -12.9954     0.0000   130.0000 </r>
       <r>   -12.9006    32.0238   133.0380 </r>
       <r>   -12.8057     2.4434   134.0000 </r>
       <r>   -12.7108     0.0000   134.0000 </r>
       <r>   -12.6160    20.7806   135.9714 </r>
       <r>   -12.5211     0.0000   136.0000 </r>
       <r>   -12.4262    11.9471   137.1334 </r>
       <r>   -12.3314    41.1634   141.9051 </r>
       <r>   -12.2365    21.0749   144.0000 </r>
       <r>   -12.1416    23.2003   146.2010 </r>
       <r>   -12.0468    42.1600   151.9996 </r>
       <r>   -11.9519     0.0000   152.0000 </r>
       <r>   -11.8570     0.0000   152.0000 </r>
       <r>   -11.7622    20.5613   153.9506 </r>
       <r>   -11.6673    20.4045   155.9362 </r>
       <r>   -11.5724     0.0000   156.0000 </r>
       <r>   -11.4775     0.0000   156.0000 </r>
       <r>   -11.3827     0.6322   156.0600 </r>
       <r>   -11.2878    14.3910   158.0000 </r>
       <r>   -11.1929     2.3710   158.2249 </r>
       <r>   -11.0981     5.9144   160.0000 </r>
       <r>   -11.0032     3.9236   160.3722 </r>
       <r>   -10.9083    38.0253   164.4290 </r>
       <r>   -10.8135    25.6281   168.1489 </r>
       <r>   -10.7186    41.1859   172.6156 </r>
       <r>   -10.6237    63.7197   180.0510 </r>
       <r>   -10.5289    11.9330   182.0001 </r>
       <r>   -10.4340    21.0814   184.0000 </r>
       <r>   -10.3391     0.0004   184.0000 </r>
       <r>   -10.2443    42.1653   188.0002 </r>
       <r>   -10.1494    29.3661   190.7861 </r>
       <r>   -10.0545    52.9266   197.0210 </r>
       <r>    -9.9597    45.2837   202.2960 </r>
       <r>    -9.8648    25.5678   205.4622 </r>
       <r>    -9.7699    25.9980   210.0006 </r>
       <r>    -9.6751    56.2868   215.3404 </r>
       <r>    -9.5802    22.3430   217.6717 </r>
       <r>    -9.4853    43.0171   222.2098 </r>
       <r>    -9.3905    54.0194   228.7928 </r>
       <r>    -9.2956    65.4110   235.7896 </r>
       <r>    -9.2007     0.0011   236.0001 </r>
       <r>    -9.1059    42.1629   240.0000 </r>
       <r>    -9.0110     0.0001   240.0000 </r>
       <r>    -8.9161    47.8933   244.5435 </r>
       <r>    -8.8213    51.8079   250.1166 </r>
       <r>    -8.7264    15.9146   253.5105 </r>
       <r>    -8.6315     6.8144   254.4976 </r>
       <r>    -8.5366    35.1192   257.9987 </r>
       <r>    -8.4418    12.8839   259.9230 </r>
       <r>    -8.3469    21.0601   261.9980 </r>
       <r>    -8.2520    34.3310   265.2572 </r>
       <r>    -8.1572    32.4119   269.8600 </r>
       <r>    -8.0623    47.1220   274.4704 </r>
       <r>    -7.9674    16.1097   277.5283 </r>
       <r>    -7.8726    13.7250   279.3021 </r>
       <r>    -7.7777     0.0000   280.0000 </r>
       <r>    -7.6828     0.0058   280.0006 </r>
       <r>    -7.5880    18.9635   281.7996 </r>
       <r>    -7.4931     0.0000   282.0000 </r>
       <r>    -7.3982     0.0000   282.0000 </r>
       <r>    -7.3034    33.4567   285.1740 </r>
       <r>    -7.2085     1.9195   286.0000 </r>
       <r>    -7.1136     0.0000   286.0000 </r>
       <r>    -7.0188     0.0000   286.0000 </r>
       <r>    -6.9239    10.9357   287.0374 </r>
       <r>    -6.8290     0.0000   288.0000 </r>
       <r>    -6.7342    21.0820   290.0000 </r>
       <r>    -6.6393     0.0002   290.0000 </r>
       <r>    -6.5444    42.1638   294.0000 </r>
       <r>    -6.4496    10.7766   295.0224 </r>
       <r>    -6.3547    42.8757   301.7391 </r>
       <r>    -6.2598    45.0201   306.2710 </r>
       <r>    -6.1650    22.1945   310.1055 </r>
       <r>    -6.0701    37.0026   314.3777 </r>
       <r>    -5.9752    53.9554   321.1393 </r>
       <r>    -5.8804     3.6780   322.0000 </r>
       <r>    -5.7855     4.5131   322.4281 </r>
       <r>    -5.6906    15.4181   326.0000 </r>
       <r>    -5.5957    21.0819   328.0000 </r>
       <r>    -5.5009    21.0819   330.0000 </r>
       <r>    -5.4060     0.0000   330.0000 </r>
       <r>    -5.3111     0.0000   330.0000 </r>
       <r>    -5.2163     0.0000   330.0000 </r>
       <r>    -5.1214    42.1640   334.0000 </r>
       <r>    -5.0265     0.0016   334.0002 </r>
       <r>    -4.9317    40.3448   337.8276 </r>
       <r>    -4.8368     0.0000   340.0000 </r>
       <r>    -4.7419     0.0000   340.0000 </r>
       <r>    -4.6471     1.8469   340.1752 </r>
       <r>    -4.5522    11.9153   341.9977 </r>
       <r>    -4.4573     0.0000   342.0000 </r>
       <r>    -4.3625     0.0000   342.0000 </r>
       <r>    -4.2676     0.0000   342.0000 </r>
       <r>    -4.1727     0.0000   342.0000 </r>
       <r>    -4.0779     0.0000   342.0000 </r>
       <r>    -3.9830     0.0000   342.0000 </r>
       <r>    -3.8881     0.0000   342.0000 </r>
       <r>    -3.7933     0.0000   342.0000 </r>
       <r>    -3.6984     0.0000   342.0000 </r>
       <r>    -3.6035     0.0000   342.0000 </r>
       <r>    -3.5087     0.0000   342.0000 </r>
       <r>    -3.4138     0.0000   342.0000 </r>
       <r>    -3.3189     0.0000   342.0000 </r>
       <r>    -3.2241     0.0000   342.0000 </r>
       <r>    -3.1292     0.0000   342.0000 </r>
       <r>    -3.0343     0.0013   342.0001 </r>
       <r>    -2.9395    16.0084   343.5188 </r>
       <r>    -2.8446    24.7648   346.0000 </r>
       <r>    -2.7497    14.9180   347.4152 </r>
       <r>    -2.6548    14.7633   348.9008 </r>
       <r>    -2.5600     8.9558   350.0000 </r>
       <r>    -2.4651     0.0000   350.0000 </r>
       <r>    -2.3702     0.0000   350.0000 </r>
       <r>    -2.2754     0.6033   350.0572 </r>
       <r>    -2.1805    14.9483   351.6352 </r>
       <r>    -2.0856    15.2303   354.0000 </r>
       <r>    -1.9908     0.0000   354.0000 </r>
       <r>    -1.8959     0.0000   354.0000 </r>
       <r>    -1.8010     0.0000   354.0000 </r>
       <r>    -1.7062     0.0000   354.0000 </r>
       <r>    -1.6113     0.0000   354.0000 </r>
       <r>    -1.5164    21.0756   355.9994 </r>
       <r>    -1.4216    42.1640   360.0000 </r>
       <r>    -1.3267     0.0000   360.0000 </r>
       <r>    -1.2318     6.9149   360.6560 </r>
       <r>    -1.1370     0.0212   364.0020 </r>
       <r>    -1.0421    42.1428   368.0000 </r>
       <r>    -0.9472     0.0000   368.0000 </r>
       <r>    -0.8524     0.0000   368.0000 </r>
       <r>    -0.7575     0.0000   368.0000 </r>
       <r>    -0.6626    30.2309   370.8679 </r>
       <r>    -0.5678     7.9655   372.0000 </r>
       <r>    -0.4729     0.0000   372.0000 </r>
       <r>    -0.3780     0.0000   372.0000 </r>
       <r>    -0.2832     6.9556   372.6599 </r>
       <r>    -0.1883    43.0059   377.2524 </r>
       <r>    -0.0934    34.6743   381.2897 </r>
       <r>     0.0014    12.2214   382.8771 </r>
       <r>     0.0963    18.2399   384.7306 </r>
       <r>     0.1912    72.1521   391.8789 </r>
       <r>     0.2861    32.6629   395.7500 </r>
       <r>     0.3809    33.3382   400.0026 </r>
       <r>     0.4758    42.8487   405.1694 </r>
       <r>     0.5707    54.1517   411.3081 </r>
       <r>     0.6655    78.0178   420.3525 </r>
       <r>     0.7604    75.1826   428.9018 </r>
       <r>     0.8553    65.9673   435.8061 </r>
       <r>     0.9501    67.2381   442.9493 </r>
       <r>     1.0450    72.5114   451.7660 </r>
       <r>     1.1399    83.4195   460.5880 </r>
       <r>     1.2347    84.5708   470.1847 </r>
       <r>     1.3296    70.7970   478.6602 </r>
       <r>     1.4245     7.3669   480.0000 </r>
       <r>     1.5193     0.0000   480.0000 </r>
       <r>     1.6142     0.0000   480.0000 </r>
       <r>     1.7091     0.0000   480.0000 </r>
       <r>     1.8039     0.0000   480.0000 </r>
       <r>     1.8988     0.0000   480.0000 </r>
       <r>     1.9937     0.0000   480.0000 </r>
       <r>     2.0885     0.0000   480.0000 </r>
       <r>     2.1834     0.0000   480.0000 </r>
       <r>     2.2783     0.0000   480.0000 </r>
       <r>     2.3731     0.0000   480.0000 </r>
       <r>     2.4680     0.0000   480.0000 </r>
       <r>     2.5629     0.0000   480.0000 </r>
       <r>     2.6577     0.0000   480.0000 </r>
      </set>
     </set>
    </array>
   </total>
  </dos>
 </calculation>
 <structure name="finalpos" >
  <crystal>
   <varray name="basis" >
    <v>      25.38281785       0.06009259       0.00000000 </v>
    <v>       0.04359805      25.39068947       0.00000000 </v>
    <v>       0.00000000       0.00000000      20.00000000 </v>
   </varray>
   <i name="volume">  12889.69251629 </i>
   <varray name="rec_basis" >
    <v>       0.03939689      -0.00006765       0.00000000 </v>
    <v>      -0.00009324       0.03938468       0.00000000 </v>
    <v>       0.00000000       0.00000000       0.05000000 </v>
   </varray>
  </crystal>
  <varray name="positions" >
   <v>       0.99295869       0.51650665       0.40505327 </v>
   <v>       0.45849493       0.99032649       0.40244262 </v>
   <v>       0.98546922       0.37915180       0.45573896 </v>
   <v>       0.59527817       0.98518719       0.45618827 </v>
   <v>       0.98106130       0.59489132       0.46167304 </v>
   <v>       0.37957510       0.97858570       0.45787982 </v>
   <v>       0.04301678       0.04830346       0.50201324 </v>
   <v>       0.92781435       0.04091676       0.50375082 </v>
   <v>       0.93160737       0.92524236       0.50627786 </v>
   <v>       0.04686841       0.93266255       0.50404063 </v>
   <v>       0.96946081       0.45776087       0.51809071 </v>
   <v>       0.51619117       0.96845708       0.51705422 </v>
   <v>       0.21146113       0.97466712       0.44755265 </v>
   <v>       0.26610177       0.97689546       0.44679447 </v>
   <v>       0.97688000       0.76273853       0.45210735 </v>
   <v>       0.97915491       0.70811204       0.45125014 </v>
   <v>       0.70875379       0.99178441       0.44890711 </v>
   <v>       0.76337409       0.99437955       0.44968458 </v>
   <v>       0.99351671       0.21123837       0.44621841 </v>
   <v>       0.99099327       0.26586673       0.44633436 </v>
   <v>       0.00615522       0.43848118       0.33648606 </v>
   <v>       0.99395091       0.46395658       0.40237979 </v>
   <v>       0.53720494       0.00359119       0.33529755 </v>
   <v>       0.51106277       0.99186673       0.40086561 </v>
   <v>       0.98260117       0.43394267       0.46044400 </v>
   <v>       0.54050399       0.98152846       0.45978515 </v>
   <v>       0.98193856       0.54013430       0.46354235 </v>
   <v>       0.43431620       0.97965350       0.46061071 </v>
   <v>       0.07965573       0.12908431       0.49965655 </v>
   <v>       0.11978046       0.09266488       0.49924368 </v>
   <v>       0.09679530       0.04114853       0.50154798 </v>
   <v>       0.03066160       0.10115533       0.50091620 </v>
   <v>       0.97980468       0.12329073       0.50191722 </v>
   <v>       0.93220083       0.09470561       0.50316576 </v>
   <v>       0.87472747       0.03122330       0.50443610 </v>
   <v>       0.84457352       0.08026598       0.50436348 </v>
   <v>       0.88041842       0.11985999       0.50292455 </v>
   <v>       0.85093607       0.98106458       0.50637487 </v>
   <v>       0.87783027       0.93254905       0.50770645 </v>
   <v>       0.94385407       0.87240123       0.50707994 </v>
   <v>       0.89477374       0.84461845       0.50986358 </v>
   <v>       0.85470488       0.88111082       0.50950847 </v>
   <v>       0.99476843       0.85025814       0.50621874 </v>
   <v>       0.04241500       0.87885780       0.50495431 </v>
   <v>       0.09996903       0.94238312       0.50296144 </v>
   <v>       0.13006568       0.89330257       0.50358432 </v>
   <v>       0.09419246       0.85372420       0.50372580 </v>
   <v>       0.12376476       0.99261649       0.50217112 </v>
   <v>       0.18238701       0.99524806       0.50168669 </v>
   <v>       0.29347958       0.00051941       0.50006384 </v>
   <v>       0.26466457       0.02168753       0.55375787 </v>
   <v>       0.20988588       0.01865867       0.55485036 </v>
   <v>       0.99771309       0.79164770       0.50608062 </v>
   <v>       0.00296279       0.68055220       0.50438671 </v>
   <v>       0.02428232       0.70919061       0.55799021 </v>
   <v>       0.02126689       0.76398624       0.55914954 </v>
   <v>       0.79226426       0.97852456       0.50643833 </v>
   <v>       0.76468735       0.95998611       0.56250667 </v>
   <v>       0.70989418       0.95715838       0.56176089 </v>
   <v>       0.68107164       0.97299762       0.50508303 </v>
   <v>       0.97671952       0.18192031       0.50204644 </v>
   <v>       0.95711230       0.20907610       0.55799969 </v>
   <v>       0.97132681       0.29311412       0.50247232 </v>
   <v>       0.95431661       0.26386338       0.55811122 </v>
   <v>       0.00590119       0.62302628       0.50458260 </v>
   <v>       0.62377275       0.96926722       0.50583477 </v>
   <v>       0.96805474       0.35042707       0.50420697 </v>
   <v>       0.35097918       0.00341176       0.50054355 </v>
   <v>       0.96846359       0.51019871       0.52145665 </v>
   <v>       0.95117884       0.53433885       0.58671369 </v>
   <v>       0.46373945       0.96675260       0.51923589 </v>
   <v>       0.43912428       0.94924862       0.58400846 </v>
   <v>       0.00373519       0.28865175       0.40309348 </v>
   <v>       0.00822904       0.19033153       0.40230687 </v>
   <v>       0.78465295       0.00852313       0.40584990 </v>
   <v>       0.68633457       0.00374072       0.40489498 </v>
   <v>       0.95929185       0.78399930       0.41023007 </v>
   <v>       0.96330992       0.68570079       0.40936252 </v>
   <v>       0.28867199       0.96112126       0.40487752 </v>
   <v>       0.19035382       0.95710995       0.40564771 </v>
   <v>       0.01914937       0.46852137       0.30086025 </v>
   <v>       0.03649612       0.40785437       0.34214949 </v>
   <v>       0.97106553       0.41873274       0.31631024 </v>
   <v>       0.50742815       0.01598975       0.29881297 </v>
   <v>       0.56729687       0.03420570       0.34109749 </v>
   <v>       0.55777306       0.96846544       0.31608179 </v>
   <v>       0.93909930       0.28458888       0.60195390 </v>
   <v>       0.94424206       0.18673686       0.60159116 </v>
   <v>       0.08321486       0.17161846       0.49899834 </v>
   <v>       0.16171670       0.10040316       0.49737701 </v>
   <v>       0.01602450       0.01864265       0.50323564 </v>
   <v>       0.95863494       0.95487290       0.50467107 </v>
   <v>       0.87279299       0.16193639       0.50175463 </v>
   <v>       0.80194818       0.08369430       0.50538705 </v>
   <v>       0.78663660       0.94808692       0.60694420 </v>
   <v>       0.68881919       0.94274249       0.60568238 </v>
   <v>       0.81270622       0.87353487       0.51041967 </v>
   <v>       0.89105306       0.80213425       0.51192227 </v>
   <v>       0.17267599       0.88965656       0.50384392 </v>
   <v>       0.10193267       0.81166897       0.50297331 </v>
   <v>       0.03716718       0.78589198       0.60144045 </v>
   <v>       0.04284758       0.68813414       0.59946159 </v>
   <v>       0.18787946       0.03427487       0.59734231 </v>
   <v>       0.28557671       0.04007235       0.59535918 </v>
   <v>       0.03142267       0.60525282       0.54340028 </v>
   <v>       0.60564855       0.95206269       0.55094054 </v>
   <v>       0.95003470       0.36837918       0.54900663 </v>
   <v>       0.36839960       0.02886849       0.53951578 </v>
   <v>       0.92990987       0.57160778       0.57912587 </v>
   <v>       0.92564556       0.50642494       0.61301386 </v>
   <v>       0.98492571       0.54250414       0.61963164 </v>
   <v>       0.40204924       0.92811180       0.57576434 </v>
   <v>       0.46700109       0.92354650       0.61046578 </v>
   <v>       0.43046740       0.98283463       0.61708874 </v>
  </varray>
 </structure>
</modeling>
