<?xml version="1.0" encoding="ISO-8859-1"?>
<modeling>
 <generator>
  <i name="program" type="string">vasp </i>
  <i name="version" type="string">5.4.4.18Apr17-6-g9f103f2a35  </i>
  <i name="subversion" type="string">(build Jun 07 2020 16:50:00) complex            parallel </i>
  <i name="platform" type="string">LinuxIFC </i>
  <i name="date" type="string">2023 02 22 </i>
  <i name="time" type="string">12:16:29 </i>
 </generator>
 <incar>
  <i type="string" name="SYSTEM">Simulation for cell shape cell volume r</i>
  <i type="int" name="ISTART">     1</i>
  <i type="string" name="PREC">high</i>
  <i type="string" name="ALGO">48</i>
  <i type="int" name="ICHARG">    11</i>
  <i type="int" name="NELM">   200</i>
  <i type="int" name="IBRION">    -1</i>
  <i name="EDIFF">      0.00001000</i>
  <i name="EDIFFG">     -0.01000000</i>
  <i type="int" name="NSW">     0</i>
  <i type="int" name="ISIF">     2</i>
  <i name="ENCUT">    500.00000000</i>
  <i name="POTIM">      0.30000000</i>
  <i type="string" name="LREAL">A</i>
  <i type="int" name="ISMEAR">     0</i>
  <i name="SIGMA">      0.01000000</i>
  <i type="int" name="NWRITE">     0</i>
  <i type="logical" name="LWAVE"> F  </i>
  <i type="logical" name="LCHARG"> F  </i>
  <v type="int" name="KPOINT_BSE">    -1     0     0     0</v>
  <i type="int" name="NELM">   200</i>
  <i type="string" name="GGA">PE</i>
 </incar>
 <structure name="primitive_cell" >
  <crystal>
   <varray name="basis" >
    <v>      22.42166646      -0.00586032       0.00000000 </v>
    <v>     -11.21579911      19.33470584       0.00000000 </v>
    <v>      -0.00000000      -0.00000000      20.00000000 </v>
   </varray>
   <i name="volume">   8669.01194319 </i>
   <varray name="rec_basis" >
    <v>       0.04460648       0.02587561       0.00000000 </v>
    <v>       0.00001352       0.05172831       0.00000000 </v>
    <v>       0.00000000       0.00000000       0.05000000 </v>
   </varray>
  </crystal>
  <varray name="positions" >
   <v>      -0.27233804       0.26409018       0.45424649 </v>
   <v>      -0.29883537       0.29382682       0.45587320 </v>
   <v>      -0.34035000       0.17346070       0.49630649 </v>
   <v>      -0.25696671       0.36593854       0.45661206 </v>
   <v>      -0.37057276       0.26299015       0.45620086 </v>
   <v>      -0.15464176       0.35926428       0.44095217 </v>
   <v>      -0.18058822       0.39362740       0.45966934 </v>
   <v>      -0.39161029       0.14878196       0.48637338 </v>
   <v>      -0.41919921       0.18629981       0.45913550 </v>
   <v>      -0.28755191       0.40710682       0.45634209 </v>
   <v>      -0.40061179       0.30483068       0.45583325 </v>
   <v>      -0.35946444       0.37683410       0.45651291 </v>
   <v>      -0.14269059       0.45881440       0.48703851 </v>
   <v>      -0.43048077       0.07756282      -0.49955964 </v>
   <v>      -0.47956312       0.15983573       0.44051457 </v>
   <v>      -0.36067087       0.05220290       0.45192754 </v>
   <v>      -0.45687106       0.27808867       0.45425837 </v>
   <v>      -0.25776709       0.46354983       0.45518035 </v>
   <v>      -0.16679408       0.48595259       0.49694751 </v>
   <v>      -0.07382727       0.39267865      -0.43133157 </v>
   <v>      -0.40865131       0.03180456       0.48010630 </v>
   <v>      -0.07157127       0.49085006      -0.49951644 </v>
   <v>      -0.04337851       0.45698245      -0.46327863 </v>
   <v>      -0.49253473       0.04908965      -0.46327012 </v>
   <v>      -0.38715009       0.42561399       0.45947687 </v>
   <v>       0.47345846       0.07939000      -0.43180508 </v>
   <v>      -0.02249410       0.38969956      -0.40565485 </v>
   <v>      -0.48010840       0.34596470       0.49418010 </v>
   <v>      -0.44648284      -0.03951683       0.49289449 </v>
   <v>      -0.02332590       0.34824982      -0.37661467 </v>
   <v>      -0.35248478       0.48645095       0.44182809 </v>
   <v>      -0.02561722      -0.44163488       0.47949737 </v>
   <v>      -0.45281981       0.39761393       0.48547178 </v>
   <v>       0.02777896       0.49043439      -0.45291645 </v>
   <v>       0.46989550      -0.02222482      -0.45237581 </v>
   <v>      -0.04579197      -0.41387810       0.45126754 </v>
   <v>      -0.42744039      -0.07299914       0.47585092 </v>
   <v>       0.04229240       0.44694634      -0.41623022 </v>
   <v>       0.48992845      -0.06911303      -0.47360605 </v>
   <v>       0.41917526       0.02783132      -0.40590554 </v>
   <v>       0.04558594      -0.40843764       0.49172821 </v>
   <v>       0.41180860      -0.03699684      -0.41585112 </v>
   <v>       0.07483235      -0.44269740      -0.47465314 </v>
   <v>      -0.48519646       0.43632098       0.49906784 </v>
   <v>       0.37846930       0.02851998      -0.37712067 </v>
   <v>      -0.38821702      -0.46801348      -0.43152302 </v>
   <v>       0.44545070      -0.13961099      -0.46198600 </v>
   <v>       0.07919176      -0.35592971       0.47423458 </v>
   <v>      -0.45208352       0.49808576      -0.46386211 </v>
   <v>       0.42033477       0.36686552       0.44878809 </v>
   <v>       0.44756724       0.41456247       0.47772013 </v>
   <v>       0.14508465      -0.41706888      -0.46327818 </v>
   <v>       0.15692130      -0.45163302      -0.44343332 </v>
   <v>       0.39914950      -0.15183423      -0.44179383 </v>
   <v>      -0.48824719      -0.18579362      -0.49671290 </v>
   <v>       0.45588489      -0.19360236      -0.47756449 </v>
   <v>      -0.38583295      -0.41414406      -0.40499914 </v>
   <v>      -0.48595429      -0.46471882      -0.45288681 </v>
   <v>      -0.34482155      -0.37365276      -0.37544334 </v>
   <v>       0.19916839      -0.35224880      -0.47792668 </v>
   <v>       0.41396884       0.45208278       0.49048935 </v>
   <v>       0.24035906      -0.45370952      -0.47582133 </v>
   <v>       0.19169022      -0.30364738      -0.49635827 </v>
   <v>      -0.44315942      -0.40699760      -0.41533680 </v>
   <v>       0.44745372      -0.48472698      -0.47491528 </v>
   <v>       0.31349205      -0.23523155      -0.47521851 </v>
   <v>       0.39326268      -0.26431466      -0.47118013 </v>
   <v>       0.36171911       0.43301764       0.47265544 </v>
   <v>       0.28168505      -0.39992251      -0.47168119 </v>
   <v>       0.26953954      -0.34441709      -0.47139865 </v>
   <v>       0.32570664      -0.27663789      -0.47133936 </v>
   <v>       0.45821404      -0.30811886      -0.47564973 </v>
   <v>       0.30883894       0.49299389      -0.49757880 </v>
   <v>       0.40463902      -0.32052100      -0.47153961 </v>
   <v>       0.42146474      -0.44045221      -0.46293125 </v>
   <v>       0.45557598      -0.39416721      -0.44232086 </v>
   <v>       0.34921522      -0.38835720      -0.47150655 </v>
   <v>       0.35707181      -0.45101969      -0.47829016 </v>
  </varray>
 </structure>
 <varray name="primitive_index" >
  <v type="int" >        1 </v>
  <v type="int" >       43 </v>
  <v type="int" >       15 </v>
  <v type="int" >       42 </v>
  <v type="int" >       66 </v>
  <v type="int" >       24 </v>
  <v type="int" >       46 </v>
  <v type="int" >       37 </v>
  <v type="int" >       67 </v>
  <v type="int" >       41 </v>
  <v type="int" >       44 </v>
  <v type="int" >       40 </v>
  <v type="int" >       39 </v>
  <v type="int" >       70 </v>
  <v type="int" >       22 </v>
  <v type="int" >       14 </v>
  <v type="int" >        2 </v>
  <v type="int" >        3 </v>
  <v type="int" >       21 </v>
  <v type="int" >       35 </v>
  <v type="int" >       71 </v>
  <v type="int" >       76 </v>
  <v type="int" >       64 </v>
  <v type="int" >       56 </v>
  <v type="int" >       45 </v>
  <v type="int" >       31 </v>
  <v type="int" >       65 </v>
  <v type="int" >       18 </v>
  <v type="int" >       72 </v>
  <v type="int" >       11 </v>
  <v type="int" >       23 </v>
  <v type="int" >       77 </v>
  <v type="int" >       38 </v>
  <v type="int" >       63 </v>
  <v type="int" >       55 </v>
  <v type="int" >       20 </v>
  <v type="int" >       13 </v>
  <v type="int" >       30 </v>
  <v type="int" >       54 </v>
  <v type="int" >       57 </v>
  <v type="int" >       78 </v>
  <v type="int" >       28 </v>
  <v type="int" >       62 </v>
  <v type="int" >       73 </v>
  <v type="int" >        7 </v>
  <v type="int" >       33 </v>
  <v type="int" >       32 </v>
  <v type="int" >       19 </v>
  <v type="int" >       60 </v>
  <v type="int" >       17 </v>
  <v type="int" >       74 </v>
  <v type="int" >       36 </v>
  <v type="int" >       12 </v>
  <v type="int" >        8 </v>
  <v type="int" >       25 </v>
  <v type="int" >       69 </v>
  <v type="int" >       61 </v>
  <v type="int" >       59 </v>
  <v type="int" >        9 </v>
  <v type="int" >       53 </v>
  <v type="int" >       75 </v>
  <v type="int" >        6 </v>
  <v type="int" >       27 </v>
  <v type="int" >       29 </v>
  <v type="int" >       58 </v>
  <v type="int" >        4 </v>
  <v type="int" >       68 </v>
  <v type="int" >       16 </v>
  <v type="int" >       48 </v>
  <v type="int" >       49 </v>
  <v type="int" >       50 </v>
  <v type="int" >        5 </v>
  <v type="int" >       26 </v>
  <v type="int" >       51 </v>
  <v type="int" >       34 </v>
  <v type="int" >       10 </v>
  <v type="int" >       47 </v>
  <v type="int" >       52 </v>
 </varray>
 <kpoints>
  <generation param="listgenerated">
   <i name="divisions" type="int">      20 </i>
   <v>       0.00000000       0.00000000       0.00000000 </v>
   <v>       0.50000000       0.00000000       0.00000000 </v>
   <v>       0.33333333       0.33333333       0.00000000 </v>
   <v>       0.00000000       0.00000000       0.00000000 </v>
  </generation>
  <varray name="kpointlist" >
   <v>       0.00000000       0.00000000       0.00000000 </v>
   <v>       0.02631579       0.00000000       0.00000000 </v>
   <v>       0.05263158       0.00000000       0.00000000 </v>
   <v>       0.07894737       0.00000000       0.00000000 </v>
   <v>       0.10526316       0.00000000       0.00000000 </v>
   <v>       0.13157895       0.00000000       0.00000000 </v>
   <v>       0.15789474       0.00000000       0.00000000 </v>
   <v>       0.18421053       0.00000000       0.00000000 </v>
   <v>       0.21052632       0.00000000       0.00000000 </v>
   <v>       0.23684211       0.00000000       0.00000000 </v>
   <v>       0.26315789       0.00000000       0.00000000 </v>
   <v>       0.28947368       0.00000000       0.00000000 </v>
   <v>       0.31578947       0.00000000       0.00000000 </v>
   <v>       0.34210526       0.00000000       0.00000000 </v>
   <v>       0.36842105       0.00000000       0.00000000 </v>
   <v>       0.39473684       0.00000000       0.00000000 </v>
   <v>       0.42105263       0.00000000       0.00000000 </v>
   <v>       0.44736842       0.00000000       0.00000000 </v>
   <v>       0.47368421       0.00000000       0.00000000 </v>
   <v>       0.50000000       0.00000000       0.00000000 </v>
   <v>       0.50000000       0.00000000       0.00000000 </v>
   <v>       0.49122807       0.01754386       0.00000000 </v>
   <v>       0.48245614       0.03508772       0.00000000 </v>
   <v>       0.47368421       0.05263158       0.00000000 </v>
   <v>       0.46491228       0.07017544       0.00000000 </v>
   <v>       0.45614035       0.08771930       0.00000000 </v>
   <v>       0.44736842       0.10526316       0.00000000 </v>
   <v>       0.43859649       0.12280702       0.00000000 </v>
   <v>       0.42982456       0.14035088       0.00000000 </v>
   <v>       0.42105263       0.15789474       0.00000000 </v>
   <v>       0.41228070       0.17543860       0.00000000 </v>
   <v>       0.40350877       0.19298246       0.00000000 </v>
   <v>       0.39473684       0.21052632       0.00000000 </v>
   <v>       0.38596491       0.22807018       0.00000000 </v>
   <v>       0.37719298       0.24561404       0.00000000 </v>
   <v>       0.36842105       0.26315789       0.00000000 </v>
   <v>       0.35964912       0.28070175       0.00000000 </v>
   <v>       0.35087719       0.29824561       0.00000000 </v>
   <v>       0.34210526       0.31578947       0.00000000 </v>
   <v>       0.33333333       0.33333333       0.00000000 </v>
   <v>       0.33333333       0.33333333       0.00000000 </v>
   <v>       0.31578947       0.31578947       0.00000000 </v>
   <v>       0.29824561       0.29824561       0.00000000 </v>
   <v>       0.28070175       0.28070175       0.00000000 </v>
   <v>       0.26315789       0.26315789       0.00000000 </v>
   <v>       0.24561404       0.24561404       0.00000000 </v>
   <v>       0.22807018       0.22807018       0.00000000 </v>
   <v>       0.21052632       0.21052632       0.00000000 </v>
   <v>       0.19298246       0.19298246       0.00000000 </v>
   <v>       0.17543860       0.17543860       0.00000000 </v>
   <v>       0.15789474       0.15789474       0.00000000 </v>
   <v>       0.14035088       0.14035088       0.00000000 </v>
   <v>       0.12280702       0.12280702       0.00000000 </v>
   <v>       0.10526316       0.10526316       0.00000000 </v>
   <v>       0.08771930       0.08771930       0.00000000 </v>
   <v>       0.07017544       0.07017544       0.00000000 </v>
   <v>       0.05263158       0.05263158       0.00000000 </v>
   <v>       0.03508772       0.03508772       0.00000000 </v>
   <v>       0.01754386       0.01754386       0.00000000 </v>
   <v>       0.00000000       0.00000000       0.00000000 </v>
  </varray>
  <varray name="weights" >
   <v>       0.01666667 </v>
   <v>       0.01666667 </v>
   <v>       0.01666667 </v>
   <v>       0.01666667 </v>
   <v>       0.01666667 </v>
   <v>       0.01666667 </v>
   <v>       0.01666667 </v>
   <v>       0.01666667 </v>
   <v>       0.01666667 </v>
   <v>       0.01666667 </v>
   <v>       0.01666667 </v>
   <v>       0.01666667 </v>
   <v>       0.01666667 </v>
   <v>       0.01666667 </v>
   <v>       0.01666667 </v>
   <v>       0.01666667 </v>
   <v>       0.01666667 </v>
   <v>       0.01666667 </v>
   <v>       0.01666667 </v>
   <v>       0.01666667 </v>
   <v>       0.01666667 </v>
   <v>       0.01666667 </v>
   <v>       0.01666667 </v>
   <v>       0.01666667 </v>
   <v>       0.01666667 </v>
   <v>       0.01666667 </v>
   <v>       0.01666667 </v>
   <v>       0.01666667 </v>
   <v>       0.01666667 </v>
   <v>       0.01666667 </v>
   <v>       0.01666667 </v>
   <v>       0.01666667 </v>
   <v>       0.01666667 </v>
   <v>       0.01666667 </v>
   <v>       0.01666667 </v>
   <v>       0.01666667 </v>
   <v>       0.01666667 </v>
   <v>       0.01666667 </v>
   <v>       0.01666667 </v>
   <v>       0.01666667 </v>
   <v>       0.01666667 </v>
   <v>       0.01666667 </v>
   <v>       0.01666667 </v>
   <v>       0.01666667 </v>
   <v>       0.01666667 </v>
   <v>       0.01666667 </v>
   <v>       0.01666667 </v>
   <v>       0.01666667 </v>
   <v>       0.01666667 </v>
   <v>       0.01666667 </v>
   <v>       0.01666667 </v>
   <v>       0.01666667 </v>
   <v>       0.01666667 </v>
   <v>       0.01666667 </v>
   <v>       0.01666667 </v>
   <v>       0.01666667 </v>
   <v>       0.01666667 </v>
   <v>       0.01666667 </v>
   <v>       0.01666667 </v>
   <v>       0.01666667 </v>
  </varray>
 </kpoints>
 <parameters>
  <separator name="general" >
   <i type="string" name="SYSTEM">Simulation for cell shape cell volume r</i>
   <i type="logical" name="LCOMPAT"> F  </i>
  </separator>
  <separator name="electronic" >
   <i type="string" name="PREC">high</i>
   <i name="ENMAX">    500.00000000</i>
   <i name="ENAUG">    644.87300000</i>
   <i name="EDIFF">      0.00001000</i>
   <i type="int" name="IALGO">    38</i>
   <i type="int" name="IWAVPR">    10</i>
   <i type="int" name="NBANDS">   192</i>
   <i name="NELECT">    276.00000000</i>
   <i type="int" name="TURBO">     0</i>
   <i type="int" name="IRESTART">     0</i>
   <i type="int" name="NREBOOT">     0</i>
   <i type="int" name="NMIN">     0</i>
   <i name="EREF">      0.00000000</i>
   <separator name="electronic smearing" >
    <i type="int" name="ISMEAR">     0</i>
    <i name="SIGMA">      0.01000000</i>
    <i name="KSPACING">      0.50000000</i>
    <i type="logical" name="KGAMMA"> T  </i>
   </separator>
   <separator name="electronic projectors" >
    <i type="logical" name="LREAL"> T  </i>
    <v name="ROPT">     -0.00040000     -0.00040000     -0.00040000     -0.00040000</v>
    <i type="int" name="LMAXPAW">  -100</i>
    <i type="int" name="LMAXMIX">     2</i>
    <i type="logical" name="NLSPLINE"> F  </i>
   </separator>
   <separator name="electronic startup" >
    <i type="int" name="ISTART">     1</i>
    <i type="int" name="ICHARG">    11</i>
    <i type="int" name="INIWAV">     1</i>
   </separator>
   <separator name="electronic spin" >
    <i type="int" name="ISPIN">     1</i>
    <i type="logical" name="LNONCOLLINEAR"> F  </i>
    <v name="MAGMOM">      1.00000000      1.00000000      1.00000000      1.00000000      1.00000000      1.00000000      1.00000000      1.00000000      1.00000000      1.00000000      1.00000000      1.00000000      1.00000000      1.00000000      1.00000000      1.00000000      1.00000000      1.00000000      1.00000000      1.00000000
      1.00000000      1.00000000      1.00000000      1.00000000      1.00000000      1.00000000      1.00000000      1.00000000      1.00000000      1.00000000      1.00000000      1.00000000      1.00000000      1.00000000      1.00000000      1.00000000      1.00000000      1.00000000      1.00000000      1.00000000
      1.00000000      1.00000000      1.00000000      1.00000000      1.00000000      1.00000000      1.00000000      1.00000000      1.00000000      1.00000000      1.00000000      1.00000000      1.00000000      1.00000000      1.00000000      1.00000000      1.00000000      1.00000000      1.00000000      1.00000000
      1.00000000      1.00000000      1.00000000      1.00000000      1.00000000      1.00000000      1.00000000      1.00000000      1.00000000      1.00000000      1.00000000      1.00000000      1.00000000      1.00000000      1.00000000      1.00000000      1.00000000      1.00000000</v>
    <i name="NUPDOWN">     -1.00000000</i>
    <i type="logical" name="LSORBIT"> F  </i>
    <v name="SAXIS">      0.00000000      0.00000000      1.00000000</v>
    <i type="logical" name="LSPIRAL"> F  </i>
    <v name="QSPIRAL">      0.00000000      0.00000000      0.00000000</v>
    <i type="logical" name="LZEROZ"> F  </i>
   </separator>
   <separator name="electronic exchange-correlation" >
    <i type="logical" name="LASPH"> F  </i>
    <i type="logical" name="LMETAGGA"> F  </i>
   </separator>
   <separator name="electronic convergence" >
    <i type="int" name="NELM">   200</i>
    <i type="int" name="NELMDL">     0</i>
    <i type="int" name="NELMIN">     2</i>
    <i name="ENINI">    500.00000000</i>
    <separator name="electronic convergence detail" >
     <i type="logical" name="LDIAG"> T  </i>
     <i type="logical" name="LSUBROT"> F  </i>
     <i name="WEIMIN">      0.00000000</i>
     <i name="EBREAK">      0.00000001</i>
     <i name="DEPER">      0.30000000</i>
     <i type="int" name="NRMM">     4</i>
     <i name="TIME">      0.40000000</i>
    </separator>
   </separator>
   <separator name="electronic mixer" >
    <i name="AMIX">      0.40000000</i>
    <i name="BMIX">      1.00000000</i>
    <i name="AMIN">      0.10000000</i>
    <i name="AMIX_MAG">      1.60000000</i>
    <i name="BMIX_MAG">      1.00000000</i>
    <separator name="electronic mixer details" >
     <i type="int" name="IMIX">     4</i>
     <i type="logical" name="MIXFIRST"> F  </i>
     <i type="int" name="MAXMIX">   -45</i>
     <i name="WC">    100.00000000</i>
     <i type="int" name="INIMIX">     1</i>
     <i type="int" name="MIXPRE">     1</i>
     <i type="int" name="MREMOVE">     5</i>
    </separator>
   </separator>
   <separator name="electronic dipolcorrection" >
    <i type="logical" name="LDIPOL"> F  </i>
    <i type="logical" name="LMONO"> F  </i>
    <i type="int" name="IDIPOL">     0</i>
    <i name="EPSILON">      1.00000000</i>
    <v name="DIPOL">   -100.00000000   -100.00000000   -100.00000000</v>
    <i name="EFIELD">      0.00000000</i>
   </separator>
  </separator>
  <separator name="grids" >
   <i type="int" name="NGX">   168</i>
   <i type="int" name="NGY">   168</i>
   <i type="int" name="NGZ">   150</i>
   <i type="int" name="NGXF">   250</i>
   <i type="int" name="NGYF">   250</i>
   <i type="int" name="NGZF">   224</i>
   <i type="logical" name="ADDGRID"> F  </i>
  </separator>
  <separator name="ionic" >
   <i type="int" name="NSW">     0</i>
   <i type="int" name="IBRION">    -1</i>
   <i type="int" name="MDALGO">     0</i>
   <i type="int" name="ISIF">     2</i>
   <i name="PSTRESS">      0.00000000</i>
   <i name="EDIFFG">     -0.01000000</i>
   <i type="int" name="NFREE">     0</i>
   <i name="POTIM">      0.30000000</i>
   <i name="SMASS">     -3.00000000</i>
   <i name="SCALEE">      1.00000000</i>
  </separator>
  <separator name="ionic md" >
   <i name="TEBEG">      0.00010000</i>
   <i name="TEEND">      0.00010000</i>
   <i type="int" name="NBLOCK">     1</i>
   <i type="int" name="KBLOCK">     1</i>
   <i type="int" name="NPACO">   256</i>
   <i name="APACO">     16.00000000</i>
  </separator>
  <separator name="symmetry" >
   <i type="int" name="ISYM">     2</i>
   <i name="SYMPREC">      0.00001000</i>
  </separator>
  <separator name="dos" >
   <i type="int" name="LORBIT">     0</i>
   <v name="RWIGS">     -1.00000000     -1.00000000     -1.00000000     -1.00000000</v>
   <i type="int" name="NEDOS">   301</i>
   <i name="EMIN">     10.00000000</i>
   <i name="EMAX">    -10.00000000</i>
   <i name="EFERMI">      0.00000000</i>
  </separator>
  <separator name="writing" >
   <i type="int" name="NWRITE">     0</i>
   <i type="logical" name="LWAVE"> F  </i>
   <i type="logical" name="LDOWNSAMPLE"> F  </i>
   <i type="logical" name="LCHARG"> F  </i>
   <i type="logical" name="LPARD"> F  </i>
   <i type="logical" name="LVTOT"> F  </i>
   <i type="logical" name="LVHAR"> F  </i>
   <i type="logical" name="LELF"> F  </i>
   <i type="logical" name="LOPTICS"> F  </i>
   <v name="STM">      0.00000000      0.00000000      0.00000000      0.00000000      0.00000000      0.00000000      0.00000000</v>
  </separator>
  <separator name="performance" >
   <i type="int" name="NPAR">    16</i>
   <i type="int" name="NSIM">     4</i>
   <i type="int" name="NBLK">    -1</i>
   <i type="logical" name="LPLANE"> T  </i>
   <i type="logical" name="LSCALAPACK"> T  </i>
   <i type="logical" name="LSCAAWARE"> F  </i>
   <i type="logical" name="LSCALU"> F  </i>
   <i type="logical" name="LASYNC"> F  </i>
   <i type="logical" name="LORBITALREAL"> F  </i>
  </separator>
  <separator name="miscellaneous" >
   <i type="int" name="IDIOT">     3</i>
   <i type="int" name="ISPECIAL">     0</i>
   <i type="logical" name="LMUSIC"> F  </i>
   <v name="POMASS">      1.00000000     16.00000000     14.00100000     12.01100000</v>
   <v name="DARWINR">      0.00000000      0.00000000      0.00000000      0.00000000</v>
   <v name="DARWINV">      1.00000000      1.00000000      1.00000000      1.00000000</v>
   <i type="logical" name="LCORR"> T  </i>
  </separator>
  <i type="logical" name="GGA_COMPAT"> T  </i>
  <i type="logical" name="LBERRY"> F  </i>
  <i type="int" name="ICORELEVEL">     0</i>
  <i type="logical" name="LDAU"> F  </i>
  <i type="int" name="I_CONSTRAINED_M">     0</i>
  <separator name="electronic exchange-correlation" >
   <i type="string" name="GGA">PE</i>
   <i type="int" name="VOSKOWN">     0</i>
   <i type="logical" name="LHFCALC"> F  </i>
   <i type="string" name="PRECFOCK"></i>
   <i type="logical" name="LSYMGRAD"> F  </i>
   <i type="logical" name="LHFONE"> F  </i>
   <i type="logical" name="LRHFCALC"> F  </i>
   <i type="logical" name="LTHOMAS"> F  </i>
   <i type="logical" name="LMODELHF"> F  </i>
   <i name="ENCUT4O">     -1.00000000</i>
   <i type="int" name="EXXOEP">     0</i>
   <i type="int" name="FOURORBIT">     0</i>
   <i name="AEXX">      0.00000000</i>
   <i name="HFALPHA">      0.00000000</i>
   <i name="MCALPHA">      0.00000000</i>
   <i name="ALDAX">      1.00000000</i>
   <i name="AGGAX">      1.00000000</i>
   <i name="ALDAC">      1.00000000</i>
   <i name="AGGAC">      1.00000000</i>
   <i type="int" name="NKREDX">     1</i>
   <i type="int" name="NKREDY">     1</i>
   <i type="int" name="NKREDZ">     1</i>
   <i type="logical" name="SHIFTRED"> F  </i>
   <i type="logical" name="ODDONLY"> F  </i>
   <i type="logical" name="EVENONLY"> F  </i>
   <i type="int" name="LMAXFOCK">     0</i>
   <i type="int" name="NMAXFOCKAE">     0</i>
   <i type="logical" name="LFOCKAEDFT"> F  </i>
   <i name="HFSCREEN">      0.00000000</i>
   <i name="HFSCREENC">      0.00000000</i>
   <i type="int" name="NBANDSGWLOW">     0</i>
  </separator>
  <separator name="vdW DFT" >
   <i type="logical" name="LUSE_VDW"> F  </i>
   <i name="Zab_VDW">     -0.84910000</i>
   <i name="PARAM1">      0.12340000</i>
   <i name="PARAM2">      1.00000000</i>
   <i name="PARAM3">      0.00000000</i>
  </separator>
  <separator name="model GW" >
   <i type="int" name="MODEL_GW">     0</i>
   <i name="MODEL_EPS0">     66.68470726</i>
   <i name="MODEL_ALPHA">      1.00000000</i>
  </separator>
  <separator name="linear response parameters" >
   <i type="logical" name="LEPSILON"> F  </i>
   <i type="logical" name="LRPA"> F  </i>
   <i type="logical" name="LNABLA"> F  </i>
   <i type="logical" name="LVEL"> F  </i>
   <i type="int" name="KINTER">     0</i>
   <i name="CSHIFT">      0.10000000</i>
   <i name="OMEGAMAX">     -1.00000000</i>
   <i name="DEG_THRESHOLD">      0.00200000</i>
   <i name="RTIME">     -0.10000000</i>
   <i name="WPLASMAI">      0.00000000</i>
   <v name="DFIELD">      0.00000000      0.00000000      0.00000000</v>
   <v name="WPLASMA">      0.00000000      0.00000000      0.00000000      0.00000000      0.00000000      0.00000000      0.00000000      0.00000000      0.00000000</v>
  </separator>
  <separator name="orbital magnetization" >
   <i type="logical" name="NUCIND"> F  </i>
   <v name="MAGPOS">      0.00000000      0.00000000      0.00000000</v>
   <i type="logical" name="LNICSALL"> T  </i>
   <i type="logical" name="ORBITALMAG"> F  </i>
   <i type="logical" name="LMAGBLOCH"> F  </i>
   <i type="logical" name="LCHIMAG"> F  </i>
   <i type="logical" name="LGAUGE"> T  </i>
   <i type="int" name="MAGATOM">     0</i>
   <v name="MAGDIPOL">      0.00000000      0.00000000      0.00000000</v>
   <v name="AVECCONST">      0.00000000      0.00000000      0.00000000</v>
  </separator>
  <separator name="response functions" >
   <i type="logical" name="LADDER"> F  </i>
   <i type="logical" name="LRPAFORCE"> F  </i>
   <i type="logical" name="LFXC"> F  </i>
   <i type="logical" name="LHARTREE"> T  </i>
   <i type="int" name="IBSE">     0</i>
   <v type="int" name="KPOINT">    -1     0     0     0</v>
   <i type="logical" name="LTCTE"> F  </i>
   <i type="logical" name="LTETE"> F  </i>
   <i type="logical" name="LTRIPLET"> F  </i>
   <i type="logical" name="LFXCEPS"> F  </i>
   <i type="logical" name="LFXHEG"> F  </i>
   <i type="int" name="NATURALO">     2</i>
   <i type="logical" name="L2ORDER"> F  </i>
   <i type="logical" name="LMP2LT"> F  </i>
   <i type="logical" name="LUSEW"> F  </i>
   <i name="ENCUTGW">     -2.00000000</i>
   <i name="ENCUTGWSOFT">     -2.00000000</i>
   <i name="ENCUTLF">     -1.00000000</i>
   <i type="int" name="LMAXMP2">    -1</i>
   <i name="SCISSOR">      0.00000000</i>
   <i type="int" name="NOMEGA">     0</i>
   <i type="int" name="NOMEGAR">     0</i>
   <i type="int" name="NBANDSGW">    -1</i>
   <i type="int" name="NBANDSO">    -1</i>
   <i type="int" name="NBANDSV">    -1</i>
   <i type="int" name="NELM">   200</i>
   <i type="int" name="NELMHF">     1</i>
   <i type="int" name="DIM">     3</i>
   <i type="int" name="ANTIRES">     0</i>
   <i name="OMEGAMAX">    -30.00000000</i>
   <i name="OMEGAMIN">    -30.00000000</i>
   <i name="OMEGATL">   -200.00000000</i>
   <i type="int" name="OMEGAGRID">   140</i>
   <i name="CSHIFT">     -0.10000000</i>
   <i type="logical" name="SELFENERGY"> F  </i>
   <i type="logical" name="LSPECTRAL"> F  </i>
   <i type="logical" name="LSPECTRALGW"> F  </i>
   <i type="logical" name="LSINGLES"> F  </i>
   <i type="logical" name="LFERMIGW"> F  </i>
   <i type="logical" name="ODDONLYGW"> F  </i>
   <i type="logical" name="EVENONLYGW"> F  </i>
   <i type="int" name="NKREDLFX">     1</i>
   <i type="int" name="NKREDLFY">     1</i>
   <i type="int" name="NKREDLFZ">     1</i>
   <i type="int" name="MAXMEM">  2800</i>
   <i type="int" name="TELESCOPE">     0</i>
   <i type="int" name="TAUPAR">     1</i>
   <i type="int" name="OMEGAPAR">    -1</i>
   <i name="LAMBDA">      1.00000000</i>
  </separator>
  <separator name="External order field" >
   <i name="OFIELD_KAPPA">      0.00000000</i>
   <v name="OFIELD_K">      0.00000000      0.00000000      0.00000000</v>
   <i name="OFIELD_Q6_NEAR">      0.00000000</i>
   <i name="OFIELD_Q6_FAR">      0.00000000</i>
   <i name="OFIELD_A">      0.00000000</i>
  </separator>
  <separator name="solvation model" >
   <i type="logical" name="LSOL"> F  </i>
  </separator>
 </parameters>
 <atominfo>
  <atoms>      78 </atoms>
  <types>       4 </types>
  <array name="atoms" >
   <dimension dim="1">ion</dimension>
   <field type="string">element</field>
   <field type="int">atomtype</field>
   <set>
    <rc><c>H </c><c>   1</c></rc>
    <rc><c>H </c><c>   1</c></rc>
    <rc><c>H </c><c>   1</c></rc>
    <rc><c>H </c><c>   1</c></rc>
    <rc><c>H </c><c>   1</c></rc>
    <rc><c>H </c><c>   1</c></rc>
    <rc><c>H </c><c>   1</c></rc>
    <rc><c>H </c><c>   1</c></rc>
    <rc><c>H </c><c>   1</c></rc>
    <rc><c>H </c><c>   1</c></rc>
    <rc><c>H </c><c>   1</c></rc>
    <rc><c>H </c><c>   1</c></rc>
    <rc><c>H </c><c>   1</c></rc>
    <rc><c>H </c><c>   1</c></rc>
    <rc><c>H </c><c>   1</c></rc>
    <rc><c>H </c><c>   1</c></rc>
    <rc><c>H </c><c>   1</c></rc>
    <rc><c>H </c><c>   1</c></rc>
    <rc><c>H </c><c>   1</c></rc>
    <rc><c>H </c><c>   1</c></rc>
    <rc><c>H </c><c>   1</c></rc>
    <rc><c>O </c><c>   2</c></rc>
    <rc><c>O </c><c>   2</c></rc>
    <rc><c>O </c><c>   2</c></rc>
    <rc><c>O </c><c>   2</c></rc>
    <rc><c>O </c><c>   2</c></rc>
    <rc><c>O </c><c>   2</c></rc>
    <rc><c>O </c><c>   2</c></rc>
    <rc><c>O </c><c>   2</c></rc>
    <rc><c>O </c><c>   2</c></rc>
    <rc><c>N </c><c>   3</c></rc>
    <rc><c>N </c><c>   3</c></rc>
    <rc><c>N </c><c>   3</c></rc>
    <rc><c>N </c><c>   3</c></rc>
    <rc><c>N </c><c>   3</c></rc>
    <rc><c>N </c><c>   3</c></rc>
    <rc><c>N </c><c>   3</c></rc>
    <rc><c>N </c><c>   3</c></rc>
    <rc><c>N </c><c>   3</c></rc>
    <rc><c>C </c><c>   4</c></rc>
    <rc><c>C </c><c>   4</c></rc>
    <rc><c>C </c><c>   4</c></rc>
    <rc><c>C </c><c>   4</c></rc>
    <rc><c>C </c><c>   4</c></rc>
    <rc><c>C </c><c>   4</c></rc>
    <rc><c>C </c><c>   4</c></rc>
    <rc><c>C </c><c>   4</c></rc>
    <rc><c>C </c><c>   4</c></rc>
    <rc><c>C </c><c>   4</c></rc>
    <rc><c>C </c><c>   4</c></rc>
    <rc><c>C </c><c>   4</c></rc>
    <rc><c>C </c><c>   4</c></rc>
    <rc><c>C </c><c>   4</c></rc>
    <rc><c>C </c><c>   4</c></rc>
    <rc><c>C </c><c>   4</c></rc>
    <rc><c>C </c><c>   4</c></rc>
    <rc><c>C </c><c>   4</c></rc>
    <rc><c>C </c><c>   4</c></rc>
    <rc><c>C </c><c>   4</c></rc>
    <rc><c>C </c><c>   4</c></rc>
    <rc><c>C </c><c>   4</c></rc>
    <rc><c>C </c><c>   4</c></rc>
    <rc><c>C </c><c>   4</c></rc>
    <rc><c>C </c><c>   4</c></rc>
    <rc><c>C </c><c>   4</c></rc>
    <rc><c>C </c><c>   4</c></rc>
    <rc><c>C </c><c>   4</c></rc>
    <rc><c>C </c><c>   4</c></rc>
    <rc><c>C </c><c>   4</c></rc>
    <rc><c>C </c><c>   4</c></rc>
    <rc><c>C </c><c>   4</c></rc>
    <rc><c>C </c><c>   4</c></rc>
    <rc><c>C </c><c>   4</c></rc>
    <rc><c>C </c><c>   4</c></rc>
    <rc><c>C </c><c>   4</c></rc>
    <rc><c>C </c><c>   4</c></rc>
    <rc><c>C </c><c>   4</c></rc>
    <rc><c>C </c><c>   4</c></rc>
   </set>
  </array>
  <array name="atomtypes" >
   <dimension dim="1">type</dimension>
   <field type="int">atomspertype</field>
   <field type="string">element</field>
   <field>mass</field>
   <field>valence</field>
   <field type="string">pseudopotential</field>
   <set>
    <rc><c>  21</c><c>H </c><c>      1.00000000</c><c>      1.00000000</c><c>  PAW_PBE H 15Jun2001                   </c></rc>
    <rc><c>   9</c><c>O </c><c>     16.00000000</c><c>      6.00000000</c><c>  PAW_PBE O 08Apr2002                   </c></rc>
    <rc><c>   9</c><c>N </c><c>     14.00100000</c><c>      5.00000000</c><c>  PAW_PBE N 08Apr2002                   </c></rc>
    <rc><c>  39</c><c>C </c><c>     12.01100000</c><c>      4.00000000</c><c>  PAW_PBE C 08Apr2002                   </c></rc>
   </set>
  </array>
 </atominfo>
 <structure name="initialpos" >
  <crystal>
   <varray name="basis" >
    <v>      22.42166646      -0.00586032       0.00000000 </v>
    <v>     -11.21579911      19.33470584       0.00000000 </v>
    <v>      -0.00000000      -0.00000000      20.00000000 </v>
   </varray>
   <i name="volume">   8669.01194319 </i>
   <varray name="rec_basis" >
    <v>       0.04460648       0.02587561       0.00000000 </v>
    <v>       0.00001352       0.05172831       0.00000000 </v>
    <v>       0.00000000       0.00000000       0.05000000 </v>
   </varray>
  </crystal>
  <varray name="positions" >
   <v>       0.72766196       0.26409018       0.45424649 </v>
   <v>       0.54312894       0.27808867       0.45425837 </v>
   <v>       0.74223291       0.46354983       0.45518035 </v>
   <v>       0.31349205       0.76476845       0.52478149 </v>
   <v>       0.45821404       0.69188114       0.52435027 </v>
   <v>       0.24035906       0.54629048       0.52417867 </v>
   <v>       0.37846930       0.02851998       0.62287933 </v>
   <v>       0.39914950       0.84816577       0.55820617 </v>
   <v>       0.65517845       0.62634724       0.62455666 </v>
   <v>       0.45557598       0.60583279       0.55767914 </v>
   <v>       0.97667410       0.34824982       0.62338533 </v>
   <v>       0.15692130       0.54836698       0.55656668 </v>
   <v>       0.57255961       0.92700086       0.47585092 </v>
   <v>       0.63932913       0.05220290       0.45192754 </v>
   <v>       0.65965000       0.17346070       0.49630649 </v>
   <v>       0.36171911       0.43301764       0.47265544 </v>
   <v>       0.42033477       0.36686552       0.44878809 </v>
   <v>       0.51989160       0.34596470       0.49418010 </v>
   <v>       0.07919176       0.64407029       0.47423458 </v>
   <v>       0.95420803       0.58612190       0.45126754 </v>
   <v>       0.83320592       0.48595259       0.49694751 </v>
   <v>       0.52043688       0.15983573       0.44051457 </v>
   <v>       0.64751522       0.48645095       0.44182809 </v>
   <v>       0.84535824       0.35926428       0.44095217 </v>
   <v>       0.51175281       0.81420638       0.50328710 </v>
   <v>       0.30883894       0.49299389       0.50242120 </v>
   <v>       0.19169022       0.69635262       0.50364173 </v>
   <v>       0.41180860       0.96300316       0.58414888 </v>
   <v>       0.55684058       0.59300240       0.58466320 </v>
   <v>       0.04229240       0.44694634       0.58376978 </v>
   <v>       0.47345846       0.07939000       0.56819492 </v>
   <v>       0.44545070       0.86038901       0.53801400 </v>
   <v>       0.61178298       0.53198652       0.56847698 </v>
   <v>       0.42146474       0.55954779       0.53706875 </v>
   <v>       0.92617273       0.39267865       0.56866843 </v>
   <v>       0.14508465       0.58293112       0.53672182 </v>
   <v>       0.60838971       0.14878196       0.48637338 </v>
   <v>       0.54718019       0.39761393       0.48547178 </v>
   <v>       0.85730941       0.45881440       0.48703851 </v>
   <v>       0.64053556       0.37683410       0.45651291 </v>
   <v>       0.71244809       0.40710682       0.45634209 </v>
   <v>       0.74303329       0.36593854       0.45661206 </v>
   <v>       0.70116463       0.29382682       0.45587320 </v>
   <v>       0.59938821       0.30483068       0.45583325 </v>
   <v>       0.61284991       0.42561399       0.45947687 </v>
   <v>       0.81941178       0.39362740       0.45966934 </v>
   <v>       0.34921522       0.61164280       0.52849345 </v>
   <v>       0.28168505       0.60007749       0.52831881 </v>
   <v>       0.26953954       0.65558291       0.52860135 </v>
   <v>       0.32570664       0.72336211       0.52866064 </v>
   <v>       0.40463902       0.67947900       0.52846039 </v>
   <v>       0.35707181       0.54898031       0.52170984 </v>
   <v>       0.19916839       0.64775120       0.52207332 </v>
   <v>       0.48992845       0.93088697       0.52639395 </v>
   <v>       0.46989550       0.97777518       0.54762419 </v>
   <v>       0.50746527       0.04908965       0.53672988 </v>
   <v>       0.41917526       0.02783132       0.59409446 </v>
   <v>       0.44745372       0.51527302       0.52508472 </v>
   <v>       0.51404571       0.53528118       0.54711319 </v>
   <v>       0.54791648       0.49808576       0.53613789 </v>
   <v>       0.61416705       0.58585594       0.59500086 </v>
   <v>       0.07483235       0.55730260       0.52534686 </v>
   <v>       0.02777896       0.49043439       0.54708355 </v>
   <v>       0.95662149       0.45698245       0.53672137 </v>
   <v>       0.97750590       0.38969956       0.59434515 </v>
   <v>       0.62942724       0.26299015       0.45620086 </v>
   <v>       0.58080079       0.18629981       0.45913550 </v>
   <v>       0.39326268       0.73568534       0.52881987 </v>
   <v>       0.45588489       0.80639764       0.52243551 </v>
   <v>       0.56951923       0.07756282       0.50044036 </v>
   <v>       0.59134869       0.03180456       0.48010630 </v>
   <v>       0.55351716       0.96048317       0.49289449 </v>
   <v>       0.51480354       0.43632098       0.49906784 </v>
   <v>       0.44756724       0.41456247       0.47772013 </v>
   <v>       0.41396884       0.45208278       0.49048935 </v>
   <v>       0.92842873       0.49085006       0.50048356 </v>
   <v>       0.97438278       0.55836512       0.47949737 </v>
   <v>       0.04558594       0.59156236       0.49172821 </v>
  </varray>
 </structure>
 <calculation>
  <scstep>
   <time name="dav">  268.04  270.99</time>
   <time name="total">  268.17  271.14</time>
   <energy>
    <i name="alphaZ">     39.93905990 </i>
    <i name="ewald">  31619.60530205 </i>
    <i name="hartreedc"> -41778.09003606 </i>
    <i name="XCdc">   1033.06240892 </i>
    <i name="pawpsdc">  25969.07267822 </i>
    <i name="pawaedc"> -26026.95433663 </i>
    <i name="eentropy">     -0.00000000 </i>
    <i name="bandstr">  -3691.93224662 </i>
    <i name="atom">  12273.02502915 </i>
    <i name="e_fr_energy">   -562.27214108 </i>
    <i name="e_wo_entrp">   -562.27214108 </i>
    <i name="e_0_energy">   -562.27214108 </i>
   </energy>
  </scstep>
  <scstep>
   <time name="dav">  304.00  307.29</time>
   <time name="total">  304.00  307.29</time>
   <energy>
    <i name="e_fr_energy">   -562.98771375 </i>
    <i name="e_wo_entrp">   -562.98771375 </i>
    <i name="e_0_energy">   -562.98771375 </i>
   </energy>
  </scstep>
  <scstep>
   <time name="dav">  337.99  341.80</time>
   <time name="total">  337.99  341.81</time>
   <energy>
    <i name="e_fr_energy">   -563.00859367 </i>
    <i name="e_wo_entrp">   -563.00859367 </i>
    <i name="e_0_energy">   -563.00859367 </i>
   </energy>
  </scstep>
  <scstep>
   <time name="dav">  301.57  304.97</time>
   <time name="total">  301.57  304.97</time>
   <energy>
    <i name="e_fr_energy">   -563.00900697 </i>
    <i name="e_wo_entrp">   -563.00900697 </i>
    <i name="e_0_energy">   -563.00900697 </i>
   </energy>
  </scstep>
  <scstep>
   <time name="dav">  293.22  296.41</time>
   <time name="total">  293.22  296.41</time>
   <energy>
    <i name="e_fr_energy">   -563.00902543 </i>
    <i name="e_wo_entrp">   -563.00902543 </i>
    <i name="e_0_energy">   -563.00902543 </i>
   </energy>
  </scstep>
  <scstep>
   <time name="dav">  248.79  251.43</time>
   <time name="total">  248.79  251.43</time>
   <energy>
    <i name="alphaZ">     39.93905990 </i>
    <i name="ewald">  31619.60530205 </i>
    <i name="hartreedc"> -41778.09003606 </i>
    <i name="XCdc">   1033.06240892 </i>
    <i name="pawpsdc">  25969.07267822 </i>
    <i name="pawaedc"> -26026.95433663 </i>
    <i name="eentropy">     -0.00000000 </i>
    <i name="bandstr">  -3692.66913183 </i>
    <i name="atom">  12273.02502915 </i>
    <i name="e_fr_energy">   -563.00902629 </i>
    <i name="e_wo_entrp">   -563.00902629 </i>
    <i name="e_0_energy">   -563.00902629 </i>
   </energy>
  </scstep>
  <structure>
   <crystal>
    <varray name="basis" >
     <v>      22.42166646      -0.00586032       0.00000000 </v>
     <v>     -11.21579911      19.33470584       0.00000000 </v>
     <v>      -0.00000000      -0.00000000      20.00000000 </v>
    </varray>
    <i name="volume">   8669.01194319 </i>
    <varray name="rec_basis" >
     <v>       0.04460648       0.02587561       0.00000000 </v>
     <v>       0.00001352       0.05172831       0.00000000 </v>
     <v>       0.00000000       0.00000000       0.05000000 </v>
    </varray>
   </crystal>
   <varray name="positions" >
    <v>       0.72766196       0.26409018       0.45424649 </v>
    <v>       0.54312894       0.27808867       0.45425837 </v>
    <v>       0.74223291       0.46354983       0.45518035 </v>
    <v>       0.31349205       0.76476845       0.52478149 </v>
    <v>       0.45821404       0.69188114       0.52435027 </v>
    <v>       0.24035906       0.54629048       0.52417867 </v>
    <v>       0.37846930       0.02851998       0.62287933 </v>
    <v>       0.39914950       0.84816577       0.55820617 </v>
    <v>       0.65517845       0.62634724       0.62455666 </v>
    <v>       0.45557598       0.60583279       0.55767914 </v>
    <v>       0.97667410       0.34824982       0.62338533 </v>
    <v>       0.15692130       0.54836698       0.55656668 </v>
    <v>       0.57255961       0.92700086       0.47585092 </v>
    <v>       0.63932913       0.05220290       0.45192754 </v>
    <v>       0.65965000       0.17346070       0.49630649 </v>
    <v>       0.36171911       0.43301764       0.47265544 </v>
    <v>       0.42033477       0.36686552       0.44878809 </v>
    <v>       0.51989160       0.34596470       0.49418010 </v>
    <v>       0.07919176       0.64407029       0.47423458 </v>
    <v>       0.95420803       0.58612190       0.45126754 </v>
    <v>       0.83320592       0.48595259       0.49694751 </v>
    <v>       0.52043688       0.15983573       0.44051457 </v>
    <v>       0.64751522       0.48645095       0.44182809 </v>
    <v>       0.84535824       0.35926428       0.44095217 </v>
    <v>       0.51175281       0.81420638       0.50328710 </v>
    <v>       0.30883894       0.49299389       0.50242120 </v>
    <v>       0.19169022       0.69635262       0.50364173 </v>
    <v>       0.41180860       0.96300316       0.58414888 </v>
    <v>       0.55684058       0.59300240       0.58466320 </v>
    <v>       0.04229240       0.44694634       0.58376978 </v>
    <v>       0.47345846       0.07939000       0.56819492 </v>
    <v>       0.44545070       0.86038901       0.53801400 </v>
    <v>       0.61178298       0.53198652       0.56847698 </v>
    <v>       0.42146474       0.55954779       0.53706875 </v>
    <v>       0.92617273       0.39267865       0.56866843 </v>
    <v>       0.14508465       0.58293112       0.53672182 </v>
    <v>       0.60838971       0.14878196       0.48637338 </v>
    <v>       0.54718019       0.39761393       0.48547178 </v>
    <v>       0.85730941       0.45881440       0.48703851 </v>
    <v>       0.64053556       0.37683410       0.45651291 </v>
    <v>       0.71244809       0.40710682       0.45634209 </v>
    <v>       0.74303329       0.36593854       0.45661206 </v>
    <v>       0.70116463       0.29382682       0.45587320 </v>
    <v>       0.59938821       0.30483068       0.45583325 </v>
    <v>       0.61284991       0.42561399       0.45947687 </v>
    <v>       0.81941178       0.39362740       0.45966934 </v>
    <v>       0.34921522       0.61164280       0.52849345 </v>
    <v>       0.28168505       0.60007749       0.52831881 </v>
    <v>       0.26953954       0.65558291       0.52860135 </v>
    <v>       0.32570664       0.72336211       0.52866064 </v>
    <v>       0.40463902       0.67947900       0.52846039 </v>
    <v>       0.35707181       0.54898031       0.52170984 </v>
    <v>       0.19916839       0.64775120       0.52207332 </v>
    <v>       0.48992845       0.93088697       0.52639395 </v>
    <v>       0.46989550       0.97777518       0.54762419 </v>
    <v>       0.50746527       0.04908965       0.53672988 </v>
    <v>       0.41917526       0.02783132       0.59409446 </v>
    <v>       0.44745372       0.51527302       0.52508472 </v>
    <v>       0.51404571       0.53528118       0.54711319 </v>
    <v>       0.54791648       0.49808576       0.53613789 </v>
    <v>       0.61416705       0.58585594       0.59500086 </v>
    <v>       0.07483235       0.55730260       0.52534686 </v>
    <v>       0.02777896       0.49043439       0.54708355 </v>
    <v>       0.95662149       0.45698245       0.53672137 </v>
    <v>       0.97750590       0.38969956       0.59434515 </v>
    <v>       0.62942724       0.26299015       0.45620086 </v>
    <v>       0.58080079       0.18629981       0.45913550 </v>
    <v>       0.39326268       0.73568534       0.52881987 </v>
    <v>       0.45588489       0.80639764       0.52243551 </v>
    <v>       0.56951923       0.07756282       0.50044036 </v>
    <v>       0.59134869       0.03180456       0.48010630 </v>
    <v>       0.55351716       0.96048317       0.49289449 </v>
    <v>       0.51480354       0.43632098       0.49906784 </v>
    <v>       0.44756724       0.41456247       0.47772013 </v>
    <v>       0.41396884       0.45208278       0.49048935 </v>
    <v>       0.92842873       0.49085006       0.50048356 </v>
    <v>       0.97438278       0.55836512       0.47949737 </v>
    <v>       0.04558594       0.59156236       0.49172821 </v>
   </varray>
  </structure>
  <varray name="forces" >
   <v>      -0.00064826      -0.00080390       0.00099433 </v>
   <v>       0.00063989       0.00021948       0.00004050 </v>
   <v>       0.00030695       0.00099289      -0.00021678 </v>
   <v>      -0.00202090       0.00005577      -0.00157678 </v>
   <v>      -0.00011796      -0.00001468       0.00106485 </v>
   <v>       0.00097226       0.00156871      -0.00160032 </v>
   <v>      -0.00097200      -0.00150446      -0.00001836 </v>
   <v>      -0.00177242       0.00055668      -0.00019059 </v>
   <v>      -0.00001051       0.00500715       0.00014141 </v>
   <v>       0.00135278       0.00267653      -0.00025858 </v>
   <v>      -0.00031161      -0.00458080      -0.00175080 </v>
   <v>       0.00268868      -0.00048644       0.00086472 </v>
   <v>       0.00041751       0.00166202       0.00132380 </v>
   <v>       0.00041218       0.00113727       0.00051977 </v>
   <v>       0.00073867       0.00199111       0.00036065 </v>
   <v>       0.00266391      -0.00079492       0.00262718 </v>
   <v>       0.00152397      -0.00000295       0.00547579 </v>
   <v>       0.00211155       0.00252754       0.00216268 </v>
   <v>      -0.00211287      -0.00249275       0.00413828 </v>
   <v>      -0.00388931       0.00302932      -0.00165070 </v>
   <v>       0.00080567      -0.00247434       0.00006635 </v>
   <v>      -0.00032425      -0.00252902      -0.00028372 </v>
   <v>      -0.00148901       0.00237045       0.00145138 </v>
   <v>      -0.00547908       0.00357550       0.00263624 </v>
   <v>       0.00015810       0.00085946      -0.00122947 </v>
   <v>      -0.00358569      -0.00926542      -0.00228880 </v>
   <v>       0.00199302       0.00350674      -0.00131721 </v>
   <v>       0.00133194       0.00330284       0.00135080 </v>
   <v>      -0.00002989       0.00392043       0.00025653 </v>
   <v>       0.00027273      -0.00105591      -0.00341484 </v>
   <v>      -0.00008360      -0.00328950       0.00178416 </v>
   <v>       0.00058217      -0.00499485      -0.00254873 </v>
   <v>       0.00477177       0.00258775       0.00178806 </v>
   <v>      -0.00649041       0.00348559      -0.00041396 </v>
   <v>       0.00019444       0.00104946      -0.00169909 </v>
   <v>      -0.00028617       0.00358952      -0.00305726 </v>
   <v>       0.00028754       0.00143878      -0.00070601 </v>
   <v>      -0.00281899      -0.00388935      -0.00103726 </v>
   <v>      -0.00472481       0.00311067      -0.00070417 </v>
   <v>       0.00042936      -0.00021558       0.00213743 </v>
   <v>      -0.00244179      -0.00180201       0.00022186 </v>
   <v>      -0.00103243      -0.00176770      -0.00001621 </v>
   <v>       0.00441453       0.00254644      -0.00014054 </v>
   <v>      -0.00018976      -0.00062345      -0.00149832 </v>
   <v>       0.00078850      -0.00478554       0.00161941 </v>
   <v>       0.00529803      -0.00239358      -0.00323432 </v>
   <v>      -0.00357019       0.00350172      -0.00091112 </v>
   <v>      -0.00067424      -0.00017429      -0.00182004 </v>
   <v>       0.00235534       0.00118452      -0.00148461 </v>
   <v>      -0.00087583      -0.00250304      -0.00051167 </v>
   <v>       0.00266736      -0.00216646      -0.00075301 </v>
   <v>       0.00242679       0.00638866       0.00204786 </v>
   <v>      -0.00236738      -0.00287248      -0.00145478 </v>
   <v>      -0.00234174       0.00202056       0.00146002 </v>
   <v>       0.00324869      -0.00095558      -0.00051882 </v>
   <v>      -0.00096697      -0.00356438       0.00061148 </v>
   <v>       0.00341760      -0.00086656      -0.00068581 </v>
   <v>       0.00377357       0.00107453      -0.00049557 </v>
   <v>       0.00185505      -0.00262441      -0.00202447 </v>
   <v>      -0.00221693       0.00446299       0.00383063 </v>
   <v>      -0.00274784      -0.00745369      -0.00247797 </v>
   <v>      -0.00025345       0.00086650      -0.00120662 </v>
   <v>       0.00301813       0.00129439      -0.00138718 </v>
   <v>      -0.00277680      -0.00271654       0.00291329 </v>
   <v>      -0.00257608      -0.00027688      -0.00175968 </v>
   <v>       0.00043433      -0.00169070       0.00053558 </v>
   <v>       0.00076058      -0.00096744       0.00233671 </v>
   <v>       0.00471527       0.00098319      -0.00169087 </v>
   <v>      -0.00223786       0.00164376       0.00065974 </v>
   <v>      -0.00113845       0.00240922       0.00124429 </v>
   <v>       0.00159613       0.00026266      -0.00229353 </v>
   <v>       0.00255542      -0.00177211      -0.00150138 </v>
   <v>      -0.00491543      -0.00044561      -0.00271246 </v>
   <v>       0.00250227      -0.00573928      -0.00055379 </v>
   <v>      -0.00607296      -0.00142071       0.00064261 </v>
   <v>      -0.00044673       0.00138781       0.00228346 </v>
   <v>       0.00409054       0.00244856       0.00325849 </v>
   <v>       0.00243736       0.00128015       0.00224586 </v>
  </varray>
  <varray name="stress" >
   <v>       0.20550374       0.02316991       0.00399269 </v>
   <v>       0.02316992       0.29121207       0.00217846 </v>
   <v>       0.00399269       0.00217845      -0.22342826 </v>
  </varray>
  <energy>
   <i name="e_fr_energy">   -564.59943198 </i>
   <i name="e_wo_entrp">   -564.59943198 </i>
   <i name="e_0_energy">     -0.00000000 </i>
  </energy>
  <time name="totalsc"> 2068.80 2092.27</time>
  <eigenvalues>
   <array>
    <dimension dim="1">band</dimension>
    <dimension dim="2">kpoint</dimension>
    <dimension dim="3">spin</dimension>
    <field>eigene</field>
    <field>occ</field>
    <set>
     <set comment="spin 1">
      <set comment="kpoint 1">
       <r>  -28.3197    1.0000 </r>
       <r>  -28.3167    1.0000 </r>
       <r>  -28.3125    1.0000 </r>
       <r>  -26.1089    1.0000 </r>
       <r>  -26.0935    1.0000 </r>
       <r>  -26.0918    1.0000 </r>
       <r>  -25.6888    1.0000 </r>
       <r>  -25.6738    1.0000 </r>
       <r>  -25.6717    1.0000 </r>
       <r>  -23.7666    1.0000 </r>
       <r>  -23.7653    1.0000 </r>
       <r>  -23.7616    1.0000 </r>
       <r>  -23.4110    1.0000 </r>
       <r>  -23.4087    1.0000 </r>
       <r>  -23.4061    1.0000 </r>
       <r>  -22.9451    1.0000 </r>
       <r>  -22.9428    1.0000 </r>
       <r>  -22.9410    1.0000 </r>
       <r>  -21.9633    1.0000 </r>
       <r>  -21.6093    1.0000 </r>
       <r>  -21.0470    1.0000 </r>
       <r>  -21.0449    1.0000 </r>
       <r>  -20.9292    1.0000 </r>
       <r>  -19.5858    1.0000 </r>
       <r>  -19.5857    1.0000 </r>
       <r>  -19.1742    1.0000 </r>
       <r>  -19.1732    1.0000 </r>
       <r>  -18.7547    1.0000 </r>
       <r>  -18.6457    1.0000 </r>
       <r>  -18.6433    1.0000 </r>
       <r>  -18.5147    1.0000 </r>
       <r>  -18.2715    1.0000 </r>
       <r>  -18.2679    1.0000 </r>
       <r>  -16.7655    1.0000 </r>
       <r>  -16.7632    1.0000 </r>
       <r>  -16.7621    1.0000 </r>
       <r>  -15.9771    1.0000 </r>
       <r>  -15.9757    1.0000 </r>
       <r>  -15.9589    1.0000 </r>
       <r>  -15.9355    1.0000 </r>
       <r>  -15.9342    1.0000 </r>
       <r>  -15.5771    1.0000 </r>
       <r>  -15.5761    1.0000 </r>
       <r>  -15.4179    1.0000 </r>
       <r>  -15.3961    1.0000 </r>
       <r>  -14.8834    1.0000 </r>
       <r>  -14.8800    1.0000 </r>
       <r>  -14.5190    1.0000 </r>
       <r>  -14.5173    1.0000 </r>
       <r>  -14.4000    1.0000 </r>
       <r>  -14.1004    1.0000 </r>
       <r>  -14.0371    1.0000 </r>
       <r>  -14.0334    1.0000 </r>
       <r>  -13.7675    1.0000 </r>
       <r>  -13.5445    1.0000 </r>
       <r>  -13.5419    1.0000 </r>
       <r>  -13.2277    1.0000 </r>
       <r>  -12.9104    1.0000 </r>
       <r>  -12.9062    1.0000 </r>
       <r>  -12.7699    1.0000 </r>
       <r>  -12.4449    1.0000 </r>
       <r>  -12.4422    1.0000 </r>
       <r>  -12.3604    1.0000 </r>
       <r>  -12.2273    1.0000 </r>
       <r>  -12.0660    1.0000 </r>
       <r>  -12.0637    1.0000 </r>
       <r>  -11.9413    1.0000 </r>
       <r>  -11.8991    1.0000 </r>
       <r>  -11.7228    1.0000 </r>
       <r>  -11.7208    1.0000 </r>
       <r>  -11.7164    1.0000 </r>
       <r>  -11.5124    1.0000 </r>
       <r>  -11.4233    1.0000 </r>
       <r>  -11.4180    1.0000 </r>
       <r>  -11.1635    1.0000 </r>
       <r>  -11.1280    1.0000 </r>
       <r>  -11.1273    1.0000 </r>
       <r>  -10.7318    1.0000 </r>
       <r>  -10.7180    1.0000 </r>
       <r>  -10.7139    1.0000 </r>
       <r>  -10.6384    1.0000 </r>
       <r>  -10.5749    1.0000 </r>
       <r>  -10.5705    1.0000 </r>
       <r>  -10.2725    1.0000 </r>
       <r>  -10.2129    1.0000 </r>
       <r>  -10.2107    1.0000 </r>
       <r>  -10.1132    1.0000 </r>
       <r>  -10.0548    1.0000 </r>
       <r>  -10.0514    1.0000 </r>
       <r>   -9.8731    1.0000 </r>
       <r>   -9.8344    1.0000 </r>
       <r>   -9.8337    1.0000 </r>
       <r>   -9.7335    1.0000 </r>
       <r>   -9.7296    1.0000 </r>
       <r>   -9.6207    1.0000 </r>
       <r>   -9.4998    1.0000 </r>
       <r>   -9.3162    1.0000 </r>
       <r>   -9.3133    1.0000 </r>
       <r>   -9.2571    1.0000 </r>
       <r>   -9.1106    1.0000 </r>
       <r>   -9.0162    1.0000 </r>
       <r>   -9.0137    1.0000 </r>
       <r>   -8.9545    1.0000 </r>
       <r>   -8.9527    1.0000 </r>
       <r>   -8.9286    1.0000 </r>
       <r>   -8.9271    1.0000 </r>
       <r>   -8.7872    1.0000 </r>
       <r>   -8.6821    1.0000 </r>
       <r>   -8.6804    1.0000 </r>
       <r>   -8.4264    1.0000 </r>
       <r>   -8.3691    1.0000 </r>
       <r>   -8.3674    1.0000 </r>
       <r>   -8.2718    1.0000 </r>
       <r>   -7.3803    1.0000 </r>
       <r>   -7.3782    1.0000 </r>
       <r>   -7.3128    1.0000 </r>
       <r>   -6.8705    1.0000 </r>
       <r>   -6.8691    1.0000 </r>
       <r>   -6.8326    1.0000 </r>
       <r>   -6.8106    1.0000 </r>
       <r>   -6.8092    1.0000 </r>
       <r>   -6.5271    1.0000 </r>
       <r>   -6.5246    1.0000 </r>
       <r>   -6.4213    1.0000 </r>
       <r>   -6.3756    1.0000 </r>
       <r>   -6.3723    1.0000 </r>
       <r>   -6.1507    1.0000 </r>
       <r>   -6.0278    1.0000 </r>
       <r>   -6.0239    1.0000 </r>
       <r>   -6.0220    1.0000 </r>
       <r>   -5.9147    1.0000 </r>
       <r>   -5.9125    1.0000 </r>
       <r>   -5.7309    1.0000 </r>
       <r>   -5.5201    1.0000 </r>
       <r>   -5.5161    1.0000 </r>
       <r>   -5.1478    1.0000 </r>
       <r>   -5.1181    1.0000 </r>
       <r>   -5.1121    1.0000 </r>
       <r>   -2.6486    0.0000 </r>
       <r>   -2.6462    0.0000 </r>
       <r>   -2.1529    0.0000 </r>
       <r>   -2.1474    0.0000 </r>
       <r>   -1.9613    0.0000 </r>
       <r>   -1.5378    0.0000 </r>
       <r>   -1.5349    0.0000 </r>
       <r>   -1.2638    0.0000 </r>
       <r>   -0.9335    0.0000 </r>
       <r>   -0.8788    0.0000 </r>
       <r>   -0.8767    0.0000 </r>
       <r>   -0.5886    0.0000 </r>
       <r>   -0.4563    0.0000 </r>
       <r>   -0.2424    0.0000 </r>
       <r>   -0.2405    0.0000 </r>
       <r>   -0.1978    0.0000 </r>
       <r>   -0.1171    0.0000 </r>
       <r>   -0.1157    0.0000 </r>
       <r>    0.0424    0.0000 </r>
       <r>    0.0452    0.0000 </r>
       <r>    0.1401    0.0000 </r>
       <r>    0.3554    0.0000 </r>
       <r>    0.4242    0.0000 </r>
       <r>    0.4876    0.0000 </r>
       <r>    0.4899    0.0000 </r>
       <r>    0.5935    0.0000 </r>
       <r>    0.6223    0.0000 </r>
       <r>    0.6230    0.0000 </r>
       <r>    0.6519    0.0000 </r>
       <r>    0.6995    0.0000 </r>
       <r>    0.7021    0.0000 </r>
       <r>    0.7374    0.0000 </r>
       <r>    0.7397    0.0000 </r>
       <r>    0.7464    0.0000 </r>
       <r>    0.8650    0.0000 </r>
       <r>    0.8956    0.0000 </r>
       <r>    0.8987    0.0000 </r>
       <r>    0.9506    0.0000 </r>
       <r>    1.0086    0.0000 </r>
       <r>    1.0377    0.0000 </r>
       <r>    1.0391    0.0000 </r>
       <r>    1.1036    0.0000 </r>
       <r>    1.1053    0.0000 </r>
       <r>    1.1071    0.0000 </r>
       <r>    1.1102    0.0000 </r>
       <r>    1.1124    0.0000 </r>
       <r>    1.1453    0.0000 </r>
       <r>    1.2043    0.0000 </r>
       <r>    1.2601    0.0000 </r>
       <r>    1.2643    0.0000 </r>
       <r>    1.2690    0.0000 </r>
       <r>    1.4593    0.0000 </r>
       <r>    1.4607    0.0000 </r>
       <r>    1.5459    0.0000 </r>
      </set>
      <set comment="kpoint 2">
       <r>  -28.3197    1.0000 </r>
       <r>  -28.3168    1.0000 </r>
       <r>  -28.3125    1.0000 </r>
       <r>  -26.1089    1.0000 </r>
       <r>  -26.0935    1.0000 </r>
       <r>  -26.0918    1.0000 </r>
       <r>  -25.6889    1.0000 </r>
       <r>  -25.6738    1.0000 </r>
       <r>  -25.6717    1.0000 </r>
       <r>  -23.7666    1.0000 </r>
       <r>  -23.7653    1.0000 </r>
       <r>  -23.7616    1.0000 </r>
       <r>  -23.4110    1.0000 </r>
       <r>  -23.4087    1.0000 </r>
       <r>  -23.4061    1.0000 </r>
       <r>  -22.9451    1.0000 </r>
       <r>  -22.9428    1.0000 </r>
       <r>  -22.9410    1.0000 </r>
       <r>  -21.9633    1.0000 </r>
       <r>  -21.6093    1.0000 </r>
       <r>  -21.0468    1.0000 </r>
       <r>  -21.0449    1.0000 </r>
       <r>  -20.9294    1.0000 </r>
       <r>  -19.5857    1.0000 </r>
       <r>  -19.5855    1.0000 </r>
       <r>  -19.1746    1.0000 </r>
       <r>  -19.1734    1.0000 </r>
       <r>  -18.7542    1.0000 </r>
       <r>  -18.6457    1.0000 </r>
       <r>  -18.6433    1.0000 </r>
       <r>  -18.5145    1.0000 </r>
       <r>  -18.2718    1.0000 </r>
       <r>  -18.2680    1.0000 </r>
       <r>  -16.7666    1.0000 </r>
       <r>  -16.7634    1.0000 </r>
       <r>  -16.7608    1.0000 </r>
       <r>  -15.9771    1.0000 </r>
       <r>  -15.9758    1.0000 </r>
       <r>  -15.9589    1.0000 </r>
       <r>  -15.9354    1.0000 </r>
       <r>  -15.9338    1.0000 </r>
       <r>  -15.5778    1.0000 </r>
       <r>  -15.5761    1.0000 </r>
       <r>  -15.4179    1.0000 </r>
       <r>  -15.3962    1.0000 </r>
       <r>  -14.8832    1.0000 </r>
       <r>  -14.8797    1.0000 </r>
       <r>  -14.5192    1.0000 </r>
       <r>  -14.5173    1.0000 </r>
       <r>  -14.3998    1.0000 </r>
       <r>  -14.1002    1.0000 </r>
       <r>  -14.0373    1.0000 </r>
       <r>  -14.0334    1.0000 </r>
       <r>  -13.7685    1.0000 </r>
       <r>  -13.5437    1.0000 </r>
       <r>  -13.5418    1.0000 </r>
       <r>  -13.2280    1.0000 </r>
       <r>  -12.9106    1.0000 </r>
       <r>  -12.9063    1.0000 </r>
       <r>  -12.7695    1.0000 </r>
       <r>  -12.4449    1.0000 </r>
       <r>  -12.4422    1.0000 </r>
       <r>  -12.3606    1.0000 </r>
       <r>  -12.2273    1.0000 </r>
       <r>  -12.0660    1.0000 </r>
       <r>  -12.0637    1.0000 </r>
       <r>  -11.9413    1.0000 </r>
       <r>  -11.8991    1.0000 </r>
       <r>  -11.7234    1.0000 </r>
       <r>  -11.7206    1.0000 </r>
       <r>  -11.7160    1.0000 </r>
       <r>  -11.5125    1.0000 </r>
       <r>  -11.4233    1.0000 </r>
       <r>  -11.4180    1.0000 </r>
       <r>  -11.1636    1.0000 </r>
       <r>  -11.1280    1.0000 </r>
       <r>  -11.1271    1.0000 </r>
       <r>  -10.7319    1.0000 </r>
       <r>  -10.7179    1.0000 </r>
       <r>  -10.7138    1.0000 </r>
       <r>  -10.6386    1.0000 </r>
       <r>  -10.5749    1.0000 </r>
       <r>  -10.5705    1.0000 </r>
       <r>  -10.2732    1.0000 </r>
       <r>  -10.2123    1.0000 </r>
       <r>  -10.2106    1.0000 </r>
       <r>  -10.1133    1.0000 </r>
       <r>  -10.0547    1.0000 </r>
       <r>  -10.0514    1.0000 </r>
       <r>   -9.8735    1.0000 </r>
       <r>   -9.8343    1.0000 </r>
       <r>   -9.8335    1.0000 </r>
       <r>   -9.7335    1.0000 </r>
       <r>   -9.7297    1.0000 </r>
       <r>   -9.6206    1.0000 </r>
       <r>   -9.4998    1.0000 </r>
       <r>   -9.3161    1.0000 </r>
       <r>   -9.3133    1.0000 </r>
       <r>   -9.2572    1.0000 </r>
       <r>   -9.1106    1.0000 </r>
       <r>   -9.0161    1.0000 </r>
       <r>   -9.0137    1.0000 </r>
       <r>   -8.9544    1.0000 </r>
       <r>   -8.9526    1.0000 </r>
       <r>   -8.9286    1.0000 </r>
       <r>   -8.9271    1.0000 </r>
       <r>   -8.7874    1.0000 </r>
       <r>   -8.6821    1.0000 </r>
       <r>   -8.6799    1.0000 </r>
       <r>   -8.4269    1.0000 </r>
       <r>   -8.3690    1.0000 </r>
       <r>   -8.3673    1.0000 </r>
       <r>   -8.2717    1.0000 </r>
       <r>   -7.3803    1.0000 </r>
       <r>   -7.3781    1.0000 </r>
       <r>   -7.3129    1.0000 </r>
       <r>   -6.8705    1.0000 </r>
       <r>   -6.8691    1.0000 </r>
       <r>   -6.8327    1.0000 </r>
       <r>   -6.8106    1.0000 </r>
       <r>   -6.8092    1.0000 </r>
       <r>   -6.5271    1.0000 </r>
       <r>   -6.5246    1.0000 </r>
       <r>   -6.4212    1.0000 </r>
       <r>   -6.3756    1.0000 </r>
       <r>   -6.3724    1.0000 </r>
       <r>   -6.1507    1.0000 </r>
       <r>   -6.0281    1.0000 </r>
       <r>   -6.0238    1.0000 </r>
       <r>   -6.0218    1.0000 </r>
       <r>   -5.9147    1.0000 </r>
       <r>   -5.9125    1.0000 </r>
       <r>   -5.7309    1.0000 </r>
       <r>   -5.5202    1.0000 </r>
       <r>   -5.5161    1.0000 </r>
       <r>   -5.1478    1.0000 </r>
       <r>   -5.1182    1.0000 </r>
       <r>   -5.1121    1.0000 </r>
       <r>   -2.6486    0.0000 </r>
       <r>   -2.6462    0.0000 </r>
       <r>   -2.1533    0.0000 </r>
       <r>   -2.1477    0.0000 </r>
       <r>   -1.9602    0.0000 </r>
       <r>   -1.5383    0.0000 </r>
       <r>   -1.5349    0.0000 </r>
       <r>   -1.2637    0.0000 </r>
       <r>   -0.9348    0.0000 </r>
       <r>   -0.8779    0.0000 </r>
       <r>   -0.8761    0.0000 </r>
       <r>   -0.5886    0.0000 </r>
       <r>   -0.4564    0.0000 </r>
       <r>   -0.2423    0.0000 </r>
       <r>   -0.2405    0.0000 </r>
       <r>   -0.1983    0.0000 </r>
       <r>   -0.1165    0.0000 </r>
       <r>   -0.1158    0.0000 </r>
       <r>    0.0424    0.0000 </r>
       <r>    0.0453    0.0000 </r>
       <r>    0.1399    0.0000 </r>
       <r>    0.3555    0.0000 </r>
       <r>    0.4245    0.0000 </r>
       <r>    0.4874    0.0000 </r>
       <r>    0.4899    0.0000 </r>
       <r>    0.5935    0.0000 </r>
       <r>    0.6208    0.0000 </r>
       <r>    0.6229    0.0000 </r>
       <r>    0.6525    0.0000 </r>
       <r>    0.7001    0.0000 </r>
       <r>    0.7020    0.0000 </r>
       <r>    0.7363    0.0000 </r>
       <r>    0.7393    0.0000 </r>
       <r>    0.7479    0.0000 </r>
       <r>    0.8645    0.0000 </r>
       <r>    0.8953    0.0000 </r>
       <r>    0.8990    0.0000 </r>
       <r>    0.9515    0.0000 </r>
       <r>    1.0075    0.0000 </r>
       <r>    1.0384    0.0000 </r>
       <r>    1.0392    0.0000 </r>
       <r>    1.0993    0.0000 </r>
       <r>    1.1017    0.0000 </r>
       <r>    1.1063    0.0000 </r>
       <r>    1.1141    0.0000 </r>
       <r>    1.1177    0.0000 </r>
       <r>    1.1462    0.0000 </r>
       <r>    1.2037    0.0000 </r>
       <r>    1.2610    0.0000 </r>
       <r>    1.2644    0.0000 </r>
       <r>    1.2702    0.0000 </r>
       <r>    1.4588    0.0000 </r>
       <r>    1.4601    0.0000 </r>
       <r>    1.5449    0.0000 </r>
      </set>
      <set comment="kpoint 3">
       <r>  -28.3197    1.0000 </r>
       <r>  -28.3168    1.0000 </r>
       <r>  -28.3125    1.0000 </r>
       <r>  -26.1089    1.0000 </r>
       <r>  -26.0935    1.0000 </r>
       <r>  -26.0918    1.0000 </r>
       <r>  -25.6889    1.0000 </r>
       <r>  -25.6738    1.0000 </r>
       <r>  -25.6717    1.0000 </r>
       <r>  -23.7666    1.0000 </r>
       <r>  -23.7654    1.0000 </r>
       <r>  -23.7616    1.0000 </r>
       <r>  -23.4110    1.0000 </r>
       <r>  -23.4087    1.0000 </r>
       <r>  -23.4061    1.0000 </r>
       <r>  -22.9451    1.0000 </r>
       <r>  -22.9428    1.0000 </r>
       <r>  -22.9410    1.0000 </r>
       <r>  -21.9633    1.0000 </r>
       <r>  -21.6094    1.0000 </r>
       <r>  -21.0464    1.0000 </r>
       <r>  -21.0449    1.0000 </r>
       <r>  -20.9299    1.0000 </r>
       <r>  -19.5857    1.0000 </r>
       <r>  -19.5847    1.0000 </r>
       <r>  -19.1763    1.0000 </r>
       <r>  -19.1735    1.0000 </r>
       <r>  -18.7528    1.0000 </r>
       <r>  -18.6458    1.0000 </r>
       <r>  -18.6433    1.0000 </r>
       <r>  -18.5136    1.0000 </r>
       <r>  -18.2728    1.0000 </r>
       <r>  -18.2682    1.0000 </r>
       <r>  -16.7685    1.0000 </r>
       <r>  -16.7635    1.0000 </r>
       <r>  -16.7586    1.0000 </r>
       <r>  -15.9771    1.0000 </r>
       <r>  -15.9759    1.0000 </r>
       <r>  -15.9590    1.0000 </r>
       <r>  -15.9351    1.0000 </r>
       <r>  -15.9326    1.0000 </r>
       <r>  -15.5798    1.0000 </r>
       <r>  -15.5762    1.0000 </r>
       <r>  -15.4178    1.0000 </r>
       <r>  -15.3964    1.0000 </r>
       <r>  -14.8831    1.0000 </r>
       <r>  -14.8784    1.0000 </r>
       <r>  -14.5197    1.0000 </r>
       <r>  -14.5173    1.0000 </r>
       <r>  -14.3991    1.0000 </r>
       <r>  -14.0995    1.0000 </r>
       <r>  -14.0378    1.0000 </r>
       <r>  -14.0333    1.0000 </r>
       <r>  -13.7717    1.0000 </r>
       <r>  -13.5424    1.0000 </r>
       <r>  -13.5402    1.0000 </r>
       <r>  -13.2287    1.0000 </r>
       <r>  -12.9111    1.0000 </r>
       <r>  -12.9064    1.0000 </r>
       <r>  -12.7684    1.0000 </r>
       <r>  -12.4448    1.0000 </r>
       <r>  -12.4421    1.0000 </r>
       <r>  -12.3611    1.0000 </r>
       <r>  -12.2272    1.0000 </r>
       <r>  -12.0657    1.0000 </r>
       <r>  -12.0637    1.0000 </r>
       <r>  -11.9414    1.0000 </r>
       <r>  -11.8992    1.0000 </r>
       <r>  -11.7246    1.0000 </r>
       <r>  -11.7204    1.0000 </r>
       <r>  -11.7149    1.0000 </r>
       <r>  -11.5128    1.0000 </r>
       <r>  -11.4233    1.0000 </r>
       <r>  -11.4179    1.0000 </r>
       <r>  -11.1639    1.0000 </r>
       <r>  -11.1280    1.0000 </r>
       <r>  -11.1268    1.0000 </r>
       <r>  -10.7321    1.0000 </r>
       <r>  -10.7174    1.0000 </r>
       <r>  -10.7138    1.0000 </r>
       <r>  -10.6391    1.0000 </r>
       <r>  -10.5748    1.0000 </r>
       <r>  -10.5703    1.0000 </r>
       <r>  -10.2752    1.0000 </r>
       <r>  -10.2111    1.0000 </r>
       <r>  -10.2097    1.0000 </r>
       <r>  -10.1134    1.0000 </r>
       <r>  -10.0545    1.0000 </r>
       <r>  -10.0512    1.0000 </r>
       <r>   -9.8745    1.0000 </r>
       <r>   -9.8338    1.0000 </r>
       <r>   -9.8331    1.0000 </r>
       <r>   -9.7336    1.0000 </r>
       <r>   -9.7298    1.0000 </r>
       <r>   -9.6206    1.0000 </r>
       <r>   -9.4998    1.0000 </r>
       <r>   -9.3159    1.0000 </r>
       <r>   -9.3132    1.0000 </r>
       <r>   -9.2574    1.0000 </r>
       <r>   -9.1108    1.0000 </r>
       <r>   -9.0160    1.0000 </r>
       <r>   -9.0138    1.0000 </r>
       <r>   -8.9544    1.0000 </r>
       <r>   -8.9525    1.0000 </r>
       <r>   -8.9287    1.0000 </r>
       <r>   -8.9273    1.0000 </r>
       <r>   -8.7880    1.0000 </r>
       <r>   -8.6822    1.0000 </r>
       <r>   -8.6783    1.0000 </r>
       <r>   -8.4285    1.0000 </r>
       <r>   -8.3689    1.0000 </r>
       <r>   -8.3668    1.0000 </r>
       <r>   -8.2715    1.0000 </r>
       <r>   -7.3802    1.0000 </r>
       <r>   -7.3779    1.0000 </r>
       <r>   -7.3132    1.0000 </r>
       <r>   -6.8704    1.0000 </r>
       <r>   -6.8691    1.0000 </r>
       <r>   -6.8330    1.0000 </r>
       <r>   -6.8103    1.0000 </r>
       <r>   -6.8092    1.0000 </r>
       <r>   -6.5270    1.0000 </r>
       <r>   -6.5247    1.0000 </r>
       <r>   -6.4211    1.0000 </r>
       <r>   -6.3757    1.0000 </r>
       <r>   -6.3725    1.0000 </r>
       <r>   -6.1507    1.0000 </r>
       <r>   -6.0289    1.0000 </r>
       <r>   -6.0236    1.0000 </r>
       <r>   -6.0211    1.0000 </r>
       <r>   -5.9148    1.0000 </r>
       <r>   -5.9124    1.0000 </r>
       <r>   -5.7309    1.0000 </r>
       <r>   -5.5202    1.0000 </r>
       <r>   -5.5161    1.0000 </r>
       <r>   -5.1476    1.0000 </r>
       <r>   -5.1183    1.0000 </r>
       <r>   -5.1121    1.0000 </r>
       <r>   -2.6485    0.0000 </r>
       <r>   -2.6462    0.0000 </r>
       <r>   -2.1546    0.0000 </r>
       <r>   -2.1486    0.0000 </r>
       <r>   -1.9570    0.0000 </r>
       <r>   -1.5398    0.0000 </r>
       <r>   -1.5350    0.0000 </r>
       <r>   -1.2636    0.0000 </r>
       <r>   -0.9384    0.0000 </r>
       <r>   -0.8774    0.0000 </r>
       <r>   -0.8725    0.0000 </r>
       <r>   -0.5884    0.0000 </r>
       <r>   -0.4567    0.0000 </r>
       <r>   -0.2422    0.0000 </r>
       <r>   -0.2406    0.0000 </r>
       <r>   -0.1997    0.0000 </r>
       <r>   -0.1161    0.0000 </r>
       <r>   -0.1147    0.0000 </r>
       <r>    0.0424    0.0000 </r>
       <r>    0.0457    0.0000 </r>
       <r>    0.1391    0.0000 </r>
       <r>    0.3558    0.0000 </r>
       <r>    0.4253    0.0000 </r>
       <r>    0.4869    0.0000 </r>
       <r>    0.4898    0.0000 </r>
       <r>    0.5933    0.0000 </r>
       <r>    0.6166    0.0000 </r>
       <r>    0.6224    0.0000 </r>
       <r>    0.6540    0.0000 </r>
       <r>    0.7016    0.0000 </r>
       <r>    0.7019    0.0000 </r>
       <r>    0.7341    0.0000 </r>
       <r>    0.7386    0.0000 </r>
       <r>    0.7512    0.0000 </r>
       <r>    0.8632    0.0000 </r>
       <r>    0.8945    0.0000 </r>
       <r>    0.8997    0.0000 </r>
       <r>    0.9539    0.0000 </r>
       <r>    1.0049    0.0000 </r>
       <r>    1.0382    0.0000 </r>
       <r>    1.0416    0.0000 </r>
       <r>    1.0930    0.0000 </r>
       <r>    1.0961    0.0000 </r>
       <r>    1.1064    0.0000 </r>
       <r>    1.1217    0.0000 </r>
       <r>    1.1235    0.0000 </r>
       <r>    1.1489    0.0000 </r>
       <r>    1.2019    0.0000 </r>
       <r>    1.2635    0.0000 </r>
       <r>    1.2651    0.0000 </r>
       <r>    1.2736    0.0000 </r>
       <r>    1.4573    0.0000 </r>
       <r>    1.4584    0.0000 </r>
       <r>    1.5418    0.0000 </r>
      </set>
      <set comment="kpoint 4">
       <r>  -28.3197    1.0000 </r>
       <r>  -28.3168    1.0000 </r>
       <r>  -28.3125    1.0000 </r>
       <r>  -26.1089    1.0000 </r>
       <r>  -26.0935    1.0000 </r>
       <r>  -26.0918    1.0000 </r>
       <r>  -25.6889    1.0000 </r>
       <r>  -25.6738    1.0000 </r>
       <r>  -25.6717    1.0000 </r>
       <r>  -23.7666    1.0000 </r>
       <r>  -23.7653    1.0000 </r>
       <r>  -23.7616    1.0000 </r>
       <r>  -23.4110    1.0000 </r>
       <r>  -23.4087    1.0000 </r>
       <r>  -23.4061    1.0000 </r>
       <r>  -22.9451    1.0000 </r>
       <r>  -22.9428    1.0000 </r>
       <r>  -22.9410    1.0000 </r>
       <r>  -21.9633    1.0000 </r>
       <r>  -21.6095    1.0000 </r>
       <r>  -21.0457    1.0000 </r>
       <r>  -21.0448    1.0000 </r>
       <r>  -20.9307    1.0000 </r>
       <r>  -19.5857    1.0000 </r>
       <r>  -19.5835    1.0000 </r>
       <r>  -19.1792    1.0000 </r>
       <r>  -19.1735    1.0000 </r>
       <r>  -18.7505    1.0000 </r>
       <r>  -18.6459    1.0000 </r>
       <r>  -18.6433    1.0000 </r>
       <r>  -18.5122    1.0000 </r>
       <r>  -18.2746    1.0000 </r>
       <r>  -18.2684    1.0000 </r>
       <r>  -16.7706    1.0000 </r>
       <r>  -16.7635    1.0000 </r>
       <r>  -16.7564    1.0000 </r>
       <r>  -15.9770    1.0000 </r>
       <r>  -15.9762    1.0000 </r>
       <r>  -15.9591    1.0000 </r>
       <r>  -15.9349    1.0000 </r>
       <r>  -15.9304    1.0000 </r>
       <r>  -15.5833    1.0000 </r>
       <r>  -15.5762    1.0000 </r>
       <r>  -15.4177    1.0000 </r>
       <r>  -15.3967    1.0000 </r>
       <r>  -14.8830    1.0000 </r>
       <r>  -14.8762    1.0000 </r>
       <r>  -14.5206    1.0000 </r>
       <r>  -14.5172    1.0000 </r>
       <r>  -14.3980    1.0000 </r>
       <r>  -14.0983    1.0000 </r>
       <r>  -14.0386    1.0000 </r>
       <r>  -14.0332    1.0000 </r>
       <r>  -13.7767    1.0000 </r>
       <r>  -13.5420    1.0000 </r>
       <r>  -13.5360    1.0000 </r>
       <r>  -13.2300    1.0000 </r>
       <r>  -12.9119    1.0000 </r>
       <r>  -12.9066    1.0000 </r>
       <r>  -12.7666    1.0000 </r>
       <r>  -12.4448    1.0000 </r>
       <r>  -12.4421    1.0000 </r>
       <r>  -12.3620    1.0000 </r>
       <r>  -12.2271    1.0000 </r>
       <r>  -12.0654    1.0000 </r>
       <r>  -12.0636    1.0000 </r>
       <r>  -11.9416    1.0000 </r>
       <r>  -11.8992    1.0000 </r>
       <r>  -11.7261    1.0000 </r>
       <r>  -11.7202    1.0000 </r>
       <r>  -11.7134    1.0000 </r>
       <r>  -11.5132    1.0000 </r>
       <r>  -11.4232    1.0000 </r>
       <r>  -11.4178    1.0000 </r>
       <r>  -11.1644    1.0000 </r>
       <r>  -11.1280    1.0000 </r>
       <r>  -11.1262    1.0000 </r>
       <r>  -10.7324    1.0000 </r>
       <r>  -10.7167    1.0000 </r>
       <r>  -10.7137    1.0000 </r>
       <r>  -10.6399    1.0000 </r>
       <r>  -10.5746    1.0000 </r>
       <r>  -10.5701    1.0000 </r>
       <r>  -10.2782    1.0000 </r>
       <r>  -10.2109    1.0000 </r>
       <r>  -10.2068    1.0000 </r>
       <r>  -10.1135    1.0000 </r>
       <r>  -10.0542    1.0000 </r>
       <r>  -10.0510    1.0000 </r>
       <r>   -9.8762    1.0000 </r>
       <r>   -9.8334    1.0000 </r>
       <r>   -9.8322    1.0000 </r>
       <r>   -9.7337    1.0000 </r>
       <r>   -9.7300    1.0000 </r>
       <r>   -9.6205    1.0000 </r>
       <r>   -9.4999    1.0000 </r>
       <r>   -9.3157    1.0000 </r>
       <r>   -9.3131    1.0000 </r>
       <r>   -9.2577    1.0000 </r>
       <r>   -9.1110    1.0000 </r>
       <r>   -9.0159    1.0000 </r>
       <r>   -9.0139    1.0000 </r>
       <r>   -8.9543    1.0000 </r>
       <r>   -8.9523    1.0000 </r>
       <r>   -8.9290    1.0000 </r>
       <r>   -8.9275    1.0000 </r>
       <r>   -8.7890    1.0000 </r>
       <r>   -8.6822    1.0000 </r>
       <r>   -8.6758    1.0000 </r>
       <r>   -8.4310    1.0000 </r>
       <r>   -8.3687    1.0000 </r>
       <r>   -8.3660    1.0000 </r>
       <r>   -8.2712    1.0000 </r>
       <r>   -7.3802    1.0000 </r>
       <r>   -7.3775    1.0000 </r>
       <r>   -7.3136    1.0000 </r>
       <r>   -6.8702    1.0000 </r>
       <r>   -6.8690    1.0000 </r>
       <r>   -6.8335    1.0000 </r>
       <r>   -6.8100    1.0000 </r>
       <r>   -6.8093    1.0000 </r>
       <r>   -6.5269    1.0000 </r>
       <r>   -6.5247    1.0000 </r>
       <r>   -6.4210    1.0000 </r>
       <r>   -6.3758    1.0000 </r>
       <r>   -6.3727    1.0000 </r>
       <r>   -6.1506    1.0000 </r>
       <r>   -6.0300    1.0000 </r>
       <r>   -6.0235    1.0000 </r>
       <r>   -6.0201    1.0000 </r>
       <r>   -5.9149    1.0000 </r>
       <r>   -5.9124    1.0000 </r>
       <r>   -5.7308    1.0000 </r>
       <r>   -5.5202    1.0000 </r>
       <r>   -5.5162    1.0000 </r>
       <r>   -5.1474    1.0000 </r>
       <r>   -5.1185    1.0000 </r>
       <r>   -5.1121    1.0000 </r>
       <r>   -2.6483    0.0000 </r>
       <r>   -2.6461    0.0000 </r>
       <r>   -2.1574    0.0000 </r>
       <r>   -2.1493    0.0000 </r>
       <r>   -1.9517    0.0000 </r>
       <r>   -1.5423    0.0000 </r>
       <r>   -1.5350    0.0000 </r>
       <r>   -1.2635    0.0000 </r>
       <r>   -0.9434    0.0000 </r>
       <r>   -0.8773    0.0000 </r>
       <r>   -0.8666    0.0000 </r>
       <r>   -0.5882    0.0000 </r>
       <r>   -0.4571    0.0000 </r>
       <r>   -0.2420    0.0000 </r>
       <r>   -0.2406    0.0000 </r>
       <r>   -0.2018    0.0000 </r>
       <r>   -0.1165    0.0000 </r>
       <r>   -0.1120    0.0000 </r>
       <r>    0.0425    0.0000 </r>
       <r>    0.0463    0.0000 </r>
       <r>    0.1380    0.0000 </r>
       <r>    0.3564    0.0000 </r>
       <r>    0.4265    0.0000 </r>
       <r>    0.4859    0.0000 </r>
       <r>    0.4898    0.0000 </r>
       <r>    0.5929    0.0000 </r>
       <r>    0.6108    0.0000 </r>
       <r>    0.6214    0.0000 </r>
       <r>    0.6559    0.0000 </r>
       <r>    0.7010    0.0000 </r>
       <r>    0.7043    0.0000 </r>
       <r>    0.7315    0.0000 </r>
       <r>    0.7380    0.0000 </r>
       <r>    0.7554    0.0000 </r>
       <r>    0.8611    0.0000 </r>
       <r>    0.8934    0.0000 </r>
       <r>    0.9008    0.0000 </r>
       <r>    0.9572    0.0000 </r>
       <r>    1.0013    0.0000 </r>
       <r>    1.0373    0.0000 </r>
       <r>    1.0454    0.0000 </r>
       <r>    1.0864    0.0000 </r>
       <r>    1.0918    0.0000 </r>
       <r>    1.1069    0.0000 </r>
       <r>    1.1278    0.0000 </r>
[...]
       <r>   -28.9369     0.0000     0.0000 </r>
       <r>   -28.8274     0.0000     0.0000 </r>
       <r>   -28.7179     0.0000     0.0000 </r>
       <r>   -28.6084     0.0000     0.0000 </r>
       <r>   -28.4989     0.0000     0.0000 </r>
       <r>   -28.3894     0.0000     0.0000 </r>
       <r>   -28.2799    54.7908     6.0000 </r>
       <r>   -28.1704     0.0000     6.0000 </r>
       <r>   -28.0609     0.0000     6.0000 </r>
       <r>   -27.9514     0.0000     6.0000 </r>
       <r>   -27.8419     0.0000     6.0000 </r>
       <r>   -27.7324     0.0000     6.0000 </r>
       <r>   -27.6229     0.0000     6.0000 </r>
       <r>   -27.5134     0.0000     6.0000 </r>
       <r>   -27.4038     0.0000     6.0000 </r>
       <r>   -27.2943     0.0000     6.0000 </r>
       <r>   -27.1848     0.0000     6.0000 </r>
       <r>   -27.0753     0.0000     6.0000 </r>
       <r>   -26.9658     0.0000     6.0000 </r>
       <r>   -26.8563     0.0000     6.0000 </r>
       <r>   -26.7468     0.0000     6.0000 </r>
       <r>   -26.6373     0.0000     6.0000 </r>
       <r>   -26.5278     0.0000     6.0000 </r>
       <r>   -26.4183     0.0000     6.0000 </r>
       <r>   -26.3088     0.0000     6.0000 </r>
       <r>   -26.1993     0.0000     6.0000 </r>
       <r>   -26.0898    42.1743    10.6184 </r>
       <r>   -25.9802     0.0000    12.0000 </r>
       <r>   -25.8707     0.0000    12.0000 </r>
       <r>   -25.7612     0.0000    12.0000 </r>
       <r>   -25.6517    54.7311    17.9935 </r>
       <r>   -25.5422     0.0000    18.0000 </r>
       <r>   -25.4327     0.0000    18.0000 </r>
       <r>   -25.3232     0.0000    18.0000 </r>
       <r>   -25.2137     0.0000    18.0000 </r>
       <r>   -25.1042     0.0000    18.0000 </r>
       <r>   -24.9947     0.0000    18.0000 </r>
       <r>   -24.8852     0.0000    18.0000 </r>
       <r>   -24.7757     0.0000    18.0000 </r>
       <r>   -24.6662     0.0000    18.0000 </r>
       <r>   -24.5567     0.0000    18.0000 </r>
       <r>   -24.4471     0.0000    18.0000 </r>
       <r>   -24.3376     0.0000    18.0000 </r>
       <r>   -24.2281     0.0000    18.0000 </r>
       <r>   -24.1186     0.0000    18.0000 </r>
       <r>   -24.0091     0.0000    18.0000 </r>
       <r>   -23.8996     0.0000    18.0000 </r>
       <r>   -23.7901     0.0129    18.0014 </r>
       <r>   -23.6806     0.0000    24.0000 </r>
       <r>   -23.5711     0.0000    24.0000 </r>
       <r>   -23.4616     0.0000    24.0000 </r>
       <r>   -23.3521    54.7909    30.0000 </r>
       <r>   -23.2426     0.0000    30.0000 </r>
       <r>   -23.1331     0.0000    30.0000 </r>
       <r>   -23.0236     0.0000    30.0000 </r>
       <r>   -22.9140    54.7891    35.9998 </r>
       <r>   -22.8045     0.0000    36.0000 </r>
       <r>   -22.6950     0.0000    36.0000 </r>
       <r>   -22.5855     0.0000    36.0000 </r>
       <r>   -22.4760     0.0000    36.0000 </r>
       <r>   -22.3665     0.0000    36.0000 </r>
       <r>   -22.2570     0.0000    36.0000 </r>
       <r>   -22.1475     0.0000    36.0000 </r>
       <r>   -22.0380     0.0000    36.0000 </r>
       <r>   -21.9285    18.2636    38.0000 </r>
       <r>   -21.8190     0.0000    38.0000 </r>
       <r>   -21.7095     0.0000    38.0000 </r>
       <r>   -21.6000    17.2114    39.8848 </r>
       <r>   -21.4904     0.0000    40.0000 </r>
       <r>   -21.3809     0.0000    40.0000 </r>
       <r>   -21.2714     0.0000    40.0000 </r>
       <r>   -21.1619     0.0000    40.0000 </r>
       <r>   -21.0524     3.5484    40.3886 </r>
       <r>   -20.9429    23.5263    45.4096 </r>
       <r>   -20.8334     0.0000    46.0000 </r>
       <r>   -20.7239     0.0000    46.0000 </r>
       <r>   -20.6144     0.0000    46.0000 </r>
       <r>   -20.5049     0.0000    46.0000 </r>
       <r>   -20.3954     0.0000    46.0000 </r>
       <r>   -20.2859     0.0000    46.0000 </r>
       <r>   -20.1764     0.0000    46.0000 </r>
       <r>   -20.0669     0.0000    46.0000 </r>
       <r>   -19.9573     0.0000    46.0000 </r>
       <r>   -19.8478     0.0000    46.0000 </r>
       <r>   -19.7383     0.0000    46.0000 </r>
       <r>   -19.6288     0.0000    46.0000 </r>
       <r>   -19.5193    36.4691    49.9936 </r>
       <r>   -19.4098     0.0000    50.0000 </r>
       <r>   -19.3003     0.0001    50.0000 </r>
       <r>   -19.1908    13.1963    51.6451 </r>
       <r>   -19.0813     0.0000    54.0000 </r>
       <r>   -18.9718     0.0000    54.0000 </r>
       <r>   -18.8623     0.0000    54.0000 </r>
       <r>   -18.7528     1.3828    54.1514 </r>
       <r>   -18.6433    37.4880    58.7052 </r>
       <r>   -18.5338     0.0062    60.0007 </r>
       <r>   -18.4242    10.9039    61.6274 </r>
       <r>   -18.3147    11.6002    63.2703 </r>
       <r>   -18.2052    22.2207    66.0000 </r>
       <r>   -18.0957     0.0000    66.0000 </r>
       <r>   -17.9862     0.0000    66.0000 </r>
       <r>   -17.8767     0.0000    66.0000 </r>
       <r>   -17.7672     0.0000    66.0000 </r>
       <r>   -17.6577     0.0000    66.0000 </r>
       <r>   -17.5482     0.0000    66.0000 </r>
       <r>   -17.4387     0.0000    66.0000 </r>
       <r>   -17.3292     0.0000    66.0000 </r>
       <r>   -17.2197     0.0000    66.0000 </r>
       <r>   -17.1102     0.0000    66.0000 </r>
       <r>   -17.0006     0.0000    66.0000 </r>
       <r>   -16.8911     0.0000    66.0000 </r>
       <r>   -16.7816    11.9317    67.3066 </r>
       <r>   -16.6721    15.2197    72.0000 </r>
       <r>   -16.5626     0.0000    72.0000 </r>
       <r>   -16.4531     0.0000    72.0000 </r>
       <r>   -16.3436     0.0000    72.0000 </r>
       <r>   -16.2341     0.0000    72.0000 </r>
       <r>   -16.1246     0.0000    72.0000 </r>
       <r>   -16.0151     0.0000    72.0000 </r>
       <r>   -15.9056    78.0706    80.5493 </r>
       <r>   -15.7961    10.9272    81.9966 </r>
       <r>   -15.6866     9.6785    83.0599 </r>
       <r>   -15.5771    14.4804    84.8190 </r>
       <r>   -15.4675     0.0000    86.0000 </r>
       <r>   -15.3580    36.5272    90.0000 </r>
       <r>   -15.2485     0.0000    90.0000 </r>
       <r>   -15.1390     0.0000    90.0000 </r>
       <r>   -15.0295     0.0000    90.0000 </r>
       <r>   -14.9200     0.0001    90.0000 </r>
       <r>   -14.8105    28.9008    93.1649 </r>
       <r>   -14.7010     0.0000    94.0000 </r>
       <r>   -14.5915     0.0001    94.0000 </r>
       <r>   -14.4820    33.7827    97.9995 </r>
       <r>   -14.3725     7.9961    98.8756 </r>
       <r>   -14.2630     0.0000   100.0000 </r>
       <r>   -14.1535     0.0000   100.0000 </r>
       <r>   -14.0439    30.3350   103.3219 </r>
       <r>   -13.9344    12.6279   106.3495 </r>
       <r>   -13.8249     4.6862   107.4465 </r>
       <r>   -13.7154     3.3483   108.0000 </r>
       <r>   -13.6059     0.0000   108.0000 </r>
       <r>   -13.4964    23.1724   110.5375 </r>
       <r>   -13.3869    11.5669   112.0000 </r>
       <r>   -13.2774     6.5017   112.7120 </r>
       <r>   -13.1679     5.7835   114.0000 </r>
       <r>   -13.0584     0.0000   114.0000 </r>
       <r>   -12.9489     0.0420   114.0046 </r>
       <r>   -12.8394    23.1339   118.0000 </r>
       <r>   -12.7299     8.7027   118.9530 </r>
       <r>   -12.6204     0.0000   120.0000 </r>
       <r>   -12.5108     0.0000   120.0000 </r>
       <r>   -12.4013    40.5124   124.4364 </r>
       <r>   -12.2918     5.1747   126.0000 </r>
       <r>   -12.1823    18.2636   128.0000 </r>
       <r>   -12.0728     3.0523   128.3343 </r>
       <r>   -11.9633     0.0889   132.0097 </r>
       <r>   -11.8538    18.2636   136.0000 </r>
       <r>   -11.7443     3.3759   136.3697 </r>
       <r>   -11.6348    16.7416   142.0000 </r>
       <r>   -11.5253     7.1288   142.7807 </r>
       <r>   -11.4158    23.4966   146.5730 </r>
       <r>   -11.3063     0.0000   148.0000 </r>
       <r>   -11.1968     0.0132   148.0015 </r>
       <r>   -11.0873    40.4834   153.9999 </r>
       <r>   -10.9777     0.0000   154.0000 </r>
       <r>   -10.8682     0.0000   154.0000 </r>
       <r>   -10.7587     0.0053   154.0006 </r>
       <r>   -10.6492    49.5478   161.4258 </r>
       <r>   -10.5397    36.5208   165.9993 </r>
       <r>   -10.4302     0.0000   166.0000 </r>
       <r>   -10.3207     9.0205   166.9878 </r>
       <r>   -10.2112    13.7514   169.0725 </r>
       <r>   -10.1017    31.0407   173.9658 </r>
       <r>    -9.9922    36.5272   178.0000 </r>
       <r>    -9.8827    14.9775   179.6401 </r>
       <r>    -9.7732    36.5277   184.0001 </r>
       <r>    -9.6637    30.4393   188.0000 </r>
       <r>    -9.5541    18.2636   190.0000 </r>
       <r>    -9.4446    18.2636   192.0000 </r>
       <r>    -9.3351     0.0284   192.0031 </r>
       <r>    -9.2256    28.9173   198.0000 </r>
       <r>    -9.1161     8.5289   198.9340 </r>
       <r>    -9.0066    25.3122   202.7719 </r>
       <r>    -8.8971    73.0512   211.9996 </r>
       <r>    -8.7876    16.4996   213.8068 </r>
       <r>    -8.6781    15.1311   215.6570 </r>
       <r>    -8.5686    12.5079   217.9364 </r>
       <r>    -8.4591    12.8987   219.4125 </r>
       <r>    -8.3496    33.9565   223.5185 </r>
       <r>    -8.2401    18.2559   225.9992 </r>
       <r>    -8.1306     0.0000   226.0000 </r>
       <r>    -8.0210     0.0000   226.0000 </r>
       <r>    -7.9115     0.0000   226.0000 </r>
       <r>    -7.8020     0.0000   226.0000 </r>
       <r>    -7.6925     0.0000   226.0000 </r>
       <r>    -7.5830     0.0000   226.0000 </r>
       <r>    -7.4735     0.0000   226.0000 </r>
       <r>    -7.3640    27.2713   228.9864 </r>
       <r>    -7.2545    16.1328   232.0000 </r>
       <r>    -7.1450     0.0000   232.0000 </r>
       <r>    -7.0355     0.0000   232.0000 </r>
       <r>    -6.9260     0.0000   232.0000 </r>
       <r>    -6.8165    60.4757   238.6225 </r>
       <r>    -6.7070     0.0000   242.0000 </r>
       <r>    -6.5975     0.0000   242.0000 </r>
       <r>    -6.4879    36.5272   246.0000 </r>
       <r>    -6.3784    34.7372   249.8040 </r>
       <r>    -6.2689     0.0000   252.0000 </r>
       <r>    -6.1594     1.4526   252.1591 </r>
       <r>    -6.0499     1.1492   254.1258 </r>
       <r>    -5.9404    16.7495   260.0009 </r>
       <r>    -5.8309     2.1307   264.0000 </r>
       <r>    -5.7214    16.2129   265.7754 </r>
       <r>    -5.6119     0.0000   266.0000 </r>
       <r>    -5.5024    36.0887   269.9520 </r>
       <r>    -5.3929     0.0000   270.0000 </r>
       <r>    -5.2834     0.0000   270.0000 </r>
       <r>    -5.1739     0.0004   270.0000 </r>
       <r>    -5.0643    49.6161   276.0000 </r>
       <r>    -4.9548     0.0000   276.0000 </r>
       <r>    -4.8453     0.0000   276.0000 </r>
       <r>    -4.7358     0.0000   276.0000 </r>
       <r>    -4.6263     0.0000   276.0000 </r>
       <r>    -4.5168     0.0000   276.0000 </r>
       <r>    -4.4073     0.0000   276.0000 </r>
       <r>    -4.2978     0.0000   276.0000 </r>
       <r>    -4.1883     0.0000   276.0000 </r>
       <r>    -4.0788     0.0000   276.0000 </r>
       <r>    -3.9693     0.0000   276.0000 </r>
       <r>    -3.8598     0.0000   276.0000 </r>
       <r>    -3.7503     0.0000   276.0000 </r>
       <r>    -3.6408     0.0000   276.0000 </r>
       <r>    -3.5312     0.0000   276.0000 </r>
       <r>    -3.4217     0.0000   276.0000 </r>
       <r>    -3.3122     0.0000   276.0000 </r>
       <r>    -3.2027     0.0000   276.0000 </r>
       <r>    -3.0932     0.0000   276.0000 </r>
       <r>    -2.9837     0.0000   276.0000 </r>
       <r>    -2.8742     0.0000   276.0000 </r>
       <r>    -2.7647     0.0000   276.0000 </r>
       <r>    -2.6552     3.1746   276.3476 </r>
       <r>    -2.5457     0.0000   280.0000 </r>
       <r>    -2.4362     0.0000   280.0000 </r>
       <r>    -2.3267     0.0000   280.0000 </r>
       <r>    -2.2172     8.7828   280.9618 </r>
       <r>    -2.1077    23.4383   284.0000 </r>
       <r>    -1.9981     0.0000   284.0000 </r>
       <r>    -1.8886     5.6385   284.6175 </r>
       <r>    -1.7791     9.6530   285.8237 </r>
       <r>    -1.6696     0.8305   286.0909 </r>
       <r>    -1.5601     5.9226   287.5486 </r>
       <r>    -1.4506     0.0000   290.0000 </r>
       <r>    -1.3411     0.0000   290.0000 </r>
       <r>    -1.2316    18.2632   292.0000 </r>
       <r>    -1.1221     0.0000   292.0000 </r>
       <r>    -1.0126     1.4316   292.1568 </r>
       <r>    -0.9031     6.0909   294.0003 </r>
       <r>    -0.7936     6.6745   296.8642 </r>
       <r>    -0.6841     0.0000   298.0000 </r>
       <r>    -0.5745    15.2521   299.6702 </r>
       <r>    -0.4650    11.4788   301.2570 </r>
       <r>    -0.3555     0.0000   302.0000 </r>
       <r>    -0.2460    15.3323   303.6790 </r>
       <r>    -0.1365    11.9093   308.3042 </r>
       <r>    -0.0270    15.5035   311.9978 </r>
       <r>     0.0825    36.4822   315.9951 </r>
       <r>     0.1920    13.0889   318.0000 </r>
       <r>     0.3015     0.0000   318.0000 </r>
       <r>     0.4110    16.5603   319.8135 </r>
       <r>     0.5205    53.1635   326.5885 </r>
       <r>     0.6300    37.5737   331.9813 </r>
       <r>     0.7395    59.4862   339.4142 </r>
       <r>     0.8490    21.1586   344.6837 </r>
       <r>     0.9586    49.1102   351.7779 </r>
       <r>     1.0681    40.6549   358.0187 </r>
       <r>     1.1776    59.0671   366.9016 </r>
       <r>     1.2871    40.9813   373.3877 </r>
       <r>     1.3966    30.8477   378.7114 </r>
       <r>     1.5061    33.1346   383.5951 </r>
       <r>     1.6156     2.1308   384.0000 </r>
       <r>     1.7251     0.0000   384.0000 </r>
       <r>     1.8346     0.0000   384.0000 </r>
       <r>     1.9441     0.0000   384.0000 </r>
       <r>     2.0536     0.0000   384.0000 </r>
       <r>     2.1631     0.0000   384.0000 </r>
       <r>     2.2726     0.0000   384.0000 </r>
       <r>     2.3821     0.0000   384.0000 </r>
       <r>     2.4917     0.0000   384.0000 </r>
       <r>     2.6012     0.0000   384.0000 </r>
       <r>     2.7107     0.0000   384.0000 </r>
       <r>     2.8202     0.0000   384.0000 </r>
       <r>     2.9297     0.0000   384.0000 </r>
       <r>     3.0392     0.0000   384.0000 </r>
      </set>
     </set>
    </array>
   </total>
  </dos>
 </calculation>
 <structure name="finalpos" >
  <crystal>
   <varray name="basis" >
    <v>      22.42166646      -0.00586032       0.00000000 </v>
    <v>     -11.21579911      19.33470584       0.00000000 </v>
    <v>      -0.00000000      -0.00000000      20.00000000 </v>
   </varray>
   <i name="volume">   8669.01194319 </i>
   <varray name="rec_basis" >
    <v>       0.04460648       0.02587561       0.00000000 </v>
    <v>       0.00001352       0.05172831       0.00000000 </v>
    <v>       0.00000000       0.00000000       0.05000000 </v>
   </varray>
  </crystal>
  <varray name="positions" >
   <v>       0.72766196       0.26409018       0.45424649 </v>
   <v>       0.54312894       0.27808867       0.45425837 </v>
   <v>       0.74223291       0.46354983       0.45518035 </v>
   <v>       0.31349205       0.76476845       0.52478149 </v>
   <v>       0.45821404       0.69188114       0.52435027 </v>
   <v>       0.24035906       0.54629048       0.52417867 </v>
   <v>       0.37846930       0.02851998       0.62287933 </v>
   <v>       0.39914950       0.84816577       0.55820617 </v>
   <v>       0.65517845       0.62634724       0.62455666 </v>
   <v>       0.45557598       0.60583279       0.55767914 </v>
   <v>       0.97667410       0.34824982       0.62338533 </v>
   <v>       0.15692130       0.54836698       0.55656668 </v>
   <v>       0.57255961       0.92700086       0.47585092 </v>
   <v>       0.63932913       0.05220290       0.45192754 </v>
   <v>       0.65965000       0.17346070       0.49630649 </v>
   <v>       0.36171911       0.43301764       0.47265544 </v>
   <v>       0.42033477       0.36686552       0.44878809 </v>
   <v>       0.51989160       0.34596470       0.49418010 </v>
   <v>       0.07919176       0.64407029       0.47423458 </v>
   <v>       0.95420803       0.58612190       0.45126754 </v>
   <v>       0.83320592       0.48595259       0.49694751 </v>
   <v>       0.52043688       0.15983573       0.44051457 </v>
   <v>       0.64751522       0.48645095       0.44182809 </v>
   <v>       0.84535824       0.35926428       0.44095217 </v>
   <v>       0.51175281       0.81420638       0.50328710 </v>
   <v>       0.30883894       0.49299389       0.50242120 </v>
   <v>       0.19169022       0.69635262       0.50364173 </v>
   <v>       0.41180860       0.96300316       0.58414888 </v>
   <v>       0.55684058       0.59300240       0.58466320 </v>
   <v>       0.04229240       0.44694634       0.58376978 </v>
   <v>       0.47345846       0.07939000       0.56819492 </v>
   <v>       0.44545070       0.86038901       0.53801400 </v>
   <v>       0.61178298       0.53198652       0.56847698 </v>
   <v>       0.42146474       0.55954779       0.53706875 </v>
   <v>       0.92617273       0.39267865       0.56866843 </v>
   <v>       0.14508465       0.58293112       0.53672182 </v>
   <v>       0.60838971       0.14878196       0.48637338 </v>
   <v>       0.54718019       0.39761393       0.48547178 </v>
   <v>       0.85730941       0.45881440       0.48703851 </v>
   <v>       0.64053556       0.37683410       0.45651291 </v>
   <v>       0.71244809       0.40710682       0.45634209 </v>
   <v>       0.74303329       0.36593854       0.45661206 </v>
   <v>       0.70116463       0.29382682       0.45587320 </v>
   <v>       0.59938821       0.30483068       0.45583325 </v>
   <v>       0.61284991       0.42561399       0.45947687 </v>
   <v>       0.81941178       0.39362740       0.45966934 </v>
   <v>       0.34921522       0.61164280       0.52849345 </v>
   <v>       0.28168505       0.60007749       0.52831881 </v>
   <v>       0.26953954       0.65558291       0.52860135 </v>
   <v>       0.32570664       0.72336211       0.52866064 </v>
   <v>       0.40463902       0.67947900       0.52846039 </v>
   <v>       0.35707181       0.54898031       0.52170984 </v>
   <v>       0.19916839       0.64775120       0.52207332 </v>
   <v>       0.48992845       0.93088697       0.52639395 </v>
   <v>       0.46989550       0.97777518       0.54762419 </v>
   <v>       0.50746527       0.04908965       0.53672988 </v>
   <v>       0.41917526       0.02783132       0.59409446 </v>
   <v>       0.44745372       0.51527302       0.52508472 </v>
   <v>       0.51404571       0.53528118       0.54711319 </v>
   <v>       0.54791648       0.49808576       0.53613789 </v>
   <v>       0.61416705       0.58585594       0.59500086 </v>
   <v>       0.07483235       0.55730260       0.52534686 </v>
   <v>       0.02777896       0.49043439       0.54708355 </v>
   <v>       0.95662149       0.45698245       0.53672137 </v>
   <v>       0.97750590       0.38969956       0.59434515 </v>
   <v>       0.62942724       0.26299015       0.45620086 </v>
   <v>       0.58080079       0.18629981       0.45913550 </v>
   <v>       0.39326268       0.73568534       0.52881987 </v>
   <v>       0.45588489       0.80639764       0.52243551 </v>
   <v>       0.56951923       0.07756282       0.50044036 </v>
   <v>       0.59134869       0.03180456       0.48010630 </v>
   <v>       0.55351716       0.96048317       0.49289449 </v>
   <v>       0.51480354       0.43632098       0.49906784 </v>
   <v>       0.44756724       0.41456247       0.47772013 </v>
   <v>       0.41396884       0.45208278       0.49048935 </v>
   <v>       0.92842873       0.49085006       0.50048356 </v>
   <v>       0.97438278       0.55836512       0.47949737 </v>
   <v>       0.04558594       0.59156236       0.49172821 </v>
  </varray>
 </structure>
</modeling>
