<?xml version="1.0" encoding="ISO-8859-1"?>
<modeling>
 <generator>
  <i name="program" type="string">vasp </i>
  <i name="version" type="string">5.4.4.18Apr17-6-g9f103f2a35  </i>
  <i name="subversion" type="string">(build Jun 07 2020 16:50:00) complex            parallel </i>
  <i name="platform" type="string">LinuxIFC </i>
  <i name="date" type="string">2023 02 27 </i>
  <i name="time" type="string">04:18:21 </i>
 </generator>
 <incar>
  <i type="string" name="SYSTEM">Simulation for cell shape cell volume r</i>
  <i type="int" name="ISTART">     1</i>
  <i type="string" name="PREC">high</i>
  <i type="string" name="ALGO">48</i>
  <i type="int" name="ICHARG">    11</i>
  <i type="int" name="NELM">   200</i>
  <i type="int" name="IBRION">    -1</i>
  <i name="EDIFF">      0.00001000</i>
  <i name="EDIFFG">     -0.01000000</i>
  <i type="int" name="NSW">     0</i>
  <i type="int" name="ISIF">     2</i>
  <i name="ENCUT">    500.00000000</i>
  <i name="POTIM">      0.30000000</i>
  <i type="string" name="LREAL">A</i>
  <i type="int" name="ISMEAR">     0</i>
  <i name="SIGMA">      0.01000000</i>
  <i type="int" name="NWRITE">     0</i>
  <i type="logical" name="LWAVE"> F  </i>
  <i type="logical" name="LCHARG"> F  </i>
  <v type="int" name="KPOINT_BSE">    -1     0     0     0</v>
  <i type="int" name="NELM">   200</i>
  <i type="string" name="GGA">PE</i>
 </incar>
 <structure name="primitive_cell" >
  <crystal>
   <varray name="basis" >
    <v>      23.14732842      -0.00228767       0.00000000 </v>
    <v>     -11.57559546      20.04837406       0.00000000 </v>
    <v>       0.00000006      -0.00059550      20.00000000 </v>
   </varray>
   <i name="volume">   9280.79635077 </i>
   <varray name="rec_basis" >
    <v>       0.04320400       0.02494526       0.00000074 </v>
    <v>       0.00000493       0.04988220       0.00000149 </v>
    <v>       0.00000000       0.00000000       0.05000000 </v>
   </varray>
  </crystal>
  <varray name="positions" >
   <v>       0.21084322      -0.27793626      -0.38236878 </v>
   <v>       0.23516347      -0.25843949      -0.43055318 </v>
   <v>       0.29430175      -0.20208686      -0.42993424 </v>
   <v>       0.20787293      -0.29369856      -0.49041403 </v>
   <v>       0.16301252      -0.36753667      -0.49034000 </v>
   <v>       0.32402825      -0.17718626      -0.48900480 </v>
   <v>       0.23214337      -0.26336959       0.45061823 </v>
   <v>       0.08328365      -0.31291764      -0.49072310 </v>
   <v>       0.19644212      -0.40373971      -0.48981525 </v>
   <v>       0.09270609      -0.40176924      -0.49023571 </v>
   <v>       0.25091670      -0.37652106      -0.48971894 </v>
   <v>       0.28828866      -0.20406688       0.45128673 </v>
   <v>       0.05574024      -0.36734023      -0.49026683 </v>
   <v>       0.39784334      -0.13223145      -0.48939372 </v>
   <v>       0.40683133      -0.22011603      -0.48969237 </v>
   <v>       0.16300891      -0.47338118      -0.48940599 </v>
   <v>       0.05726355      -0.47338354      -0.49002119 </v>
   <v>       0.30725853      -0.17925402       0.40321445 </v>
   <v>       0.43406767      -0.16564934      -0.48978944 </v>
   <v>      -0.01237637      -0.40140318      -0.48975037 </v>
   <v>       0.34311929      -0.05255521      -0.48919629 </v>
   <v>       0.09270334       0.49044498      -0.48974025 </v>
   <v>       0.43200290      -0.06193525      -0.48969528 </v>
   <v>      -0.03990647      -0.37451556      -0.48923338 </v>
   <v>       0.20804798       0.49787761      -0.48899967 </v>
   <v>       0.23290570       0.49296743      -0.42993622 </v>
   <v>       0.39755000      -0.02499036      -0.48965244 </v>
   <v>      -0.01393147       0.49101584      -0.48997912 </v>
   <v>      -0.04935363      -0.47280008      -0.48974092 </v>
   <v>      -0.49628426      -0.13216993      -0.49030505 </v>
   <v>       0.40742612      -0.37591283      -0.48937332 </v>
   <v>       0.05571582       0.41903090      -0.48965278 </v>
   <v>       0.28918622       0.49006311      -0.43058261 </v>
   <v>       0.23508861       0.48931536       0.45126026 </v>
   <v>      -0.49638460      -0.02646748      -0.48991635 </v>
   <v>       0.30853601       0.48493002      -0.38245095 </v>
   <v>      -0.04938238       0.41941181      -0.49006009 </v>
   <v>      -0.45344660      -0.17928576      -0.38259607 </v>
   <v>       0.43159090       0.04312890      -0.49009708 </v>
   <v>      -0.46722339      -0.17693016      -0.49051973 </v>
   <v>       0.21032562       0.48359133       0.40317489 </v>
   <v>       0.08322131       0.39211160      -0.48916677 </v>
   <v>      -0.45870997      -0.20387743      -0.43069366 </v>
   <v>      -0.46019992      -0.06188128      -0.49011287 </v>
   <v>      -0.11965667       0.49111273      -0.48921274 </v>
   <v>      -0.01241569       0.38497087      -0.49007080 </v>
   <v>       0.32460443       0.49832781      -0.49037725 </v>
   <v>       0.29445383       0.49264571       0.45061359 </v>
   <v>       0.40464744       0.07060715      -0.49051976 </v>
   <v>       0.43467662      -0.40312164      -0.48955247 </v>
   <v>      -0.46145806      -0.26296797      -0.42998137 </v>
   <v>      -0.46159406      -0.20143705       0.45048496 </v>
   <v>      -0.16447848      -0.47989326      -0.48866573 </v>
   <v>      -0.46080523       0.04471752      -0.48989059 </v>
   <v>      -0.46680566      -0.29304169      -0.48897112 </v>
   <v>      -0.49699612       0.08014337      -0.49003430 </v>
   <v>       0.39843211      -0.47276546      -0.49015082 </v>
   <v>      -0.11969027       0.38526950      -0.49002932 </v>
   <v>      -0.18955833      -0.47546905      -0.42954120 </v>
   <v>      -0.15311776       0.42147864      -0.48939558 </v>
   <v>      -0.45839492      -0.25756345       0.45122687 </v>
   <v>      -0.03995560       0.33054195      -0.49039490 </v>
   <v>      -0.49566227      -0.36687697      -0.48919920 </v>
   <v>      -0.38879411      -0.02491901      -0.49009645 </v>
   <v>      -0.16593919      -0.46411962       0.40370051 </v>
   <v>      -0.19092380      -0.47024994       0.45171676 </v>
   <v>      -0.36190223      -0.05245457      -0.49051081 </v>
   <v>      -0.45287375      -0.27674365       0.40314232 </v>
   <v>      -0.38918817       0.08014446      -0.48963240 </v>
   <v>      -0.20758878       0.39423850      -0.48907906 </v>
   <v>      -0.24564569      -0.47224386      -0.43013785 </v>
   <v>      -0.46087348       0.15045261      -0.49006930 </v>
   <v>      -0.35474392       0.04319237      -0.48959063 </v>
   <v>       0.43259561       0.49109900      -0.49004362 </v>
   <v>      -0.16789717       0.29583033      -0.38203501 </v>
   <v>      -0.16469714       0.31149235      -0.49008951 </v>
   <v>      -0.26522278      -0.46764232      -0.38191752 </v>
   <v>       0.49714135       0.19838501      -0.38225646 </v>
   <v>      -0.45958088      -0.40110351      -0.48955814 </v>
   <v>       0.34370087       0.39277817      -0.49054943 </v>
   <v>      -0.48967392       0.19547306      -0.49021361 </v>
   <v>      -0.25004718      -0.47300560       0.45100796 </v>
   <v>      -0.19221629       0.27638777      -0.43022188 </v>
   <v>      -0.49578177      -0.47272796      -0.48983159 </v>
   <v>      -0.49764932       0.22285194      -0.43041716 </v>
   <v>      -0.28059201      -0.47947711      -0.49006014 </v>
   <v>       0.39813954       0.41969138      -0.49011165 </v>
   <v>      -0.35501008       0.15043260      -0.48921091 </v>
   <v>      -0.39121975       0.18385852      -0.48950807 </v>
   <v>      -0.30031538       0.07072027      -0.48906407 </v>
   <v>      -0.18898995       0.28118683       0.45094991 </v>
   <v>      -0.36123102      -0.31228789      -0.48904544 </v>
   <v>      -0.49538176       0.21992540       0.45078618 </v>
   <v>      -0.38817046      -0.36671334      -0.48954760 </v>
   <v>      -0.29970385      -0.37392888      -0.49050416 </v>
   <v>      -0.25153986       0.22031677      -0.42964729 </v>
   <v>      -0.36395983       0.23831924      -0.48931078 </v>
   <v>      -0.49444754       0.28217388      -0.42982610 </v>
   <v>       0.43217764       0.38561282      -0.48963384 </v>
   <v>      -0.46021267       0.49164703      -0.48986289 </v>
   <v>      -0.28118423       0.19532222      -0.48873023 </v>
   <v>      -0.24526445       0.22197900       0.45160691 </v>
   <v>      -0.35441500       0.49167863      -0.49008796 </v>
   <v>      -0.49821357       0.27623179       0.45140508 </v>
   <v>      -0.36343771       0.39478917      -0.48935267 </v>
   <v>      -0.35413877      -0.40079874      -0.49005357 </v>
   <v>      -0.48930034       0.31200103      -0.48890056 </v>
   <v>      -0.49640795       0.42003412      -0.48964450 </v>
   <v>       0.40524956       0.33118209      -0.48915362 </v>
   <v>      -0.39065332       0.42203421      -0.48954887 </v>
   <v>       0.49614708       0.29528879       0.40329808 </v>
   <v>      -0.38859418      -0.47220011      -0.49003271 </v>
   <v>      -0.26417634       0.19710846       0.40354082 </v>
   <v>      -0.46031071       0.38582919      -0.48927835 </v>
  </varray>
 </structure>
 <varray name="primitive_index" >
  <v type="int" >        1 </v>
  <v type="int" >       32 </v>
  <v type="int" >      103 </v>
  <v type="int" >       31 </v>
  <v type="int" >       39 </v>
  <v type="int" >       67 </v>
  <v type="int" >      105 </v>
  <v type="int" >        4 </v>
  <v type="int" >       38 </v>
  <v type="int" >       40 </v>
  <v type="int" >        2 </v>
  <v type="int" >       43 </v>
  <v type="int" >       42 </v>
  <v type="int" >       47 </v>
  <v type="int" >        6 </v>
  <v type="int" >       37 </v>
  <v type="int" >       35 </v>
  <v type="int" >       15 </v>
  <v type="int" >       48 </v>
  <v type="int" >      100 </v>
  <v type="int" >        8 </v>
  <v type="int" >       36 </v>
  <v type="int" >       46 </v>
  <v type="int" >       28 </v>
  <v type="int" >       34 </v>
  <v type="int" >      104 </v>
  <v type="int" >       51 </v>
  <v type="int" >       93 </v>
  <v type="int" >       98 </v>
  <v type="int" >       49 </v>
  <v type="int" >        9 </v>
  <v type="int" >       41 </v>
  <v type="int" >       33 </v>
  <v type="int" >       44 </v>
  <v type="int" >       45 </v>
  <v type="int" >       13 </v>
  <v type="int" >       94 </v>
  <v type="int" >       12 </v>
  <v type="int" >       55 </v>
  <v type="int" >       68 </v>
  <v type="int" >        5 </v>
  <v type="int" >        3 </v>
  <v type="int" >       69 </v>
  <v type="int" >       50 </v>
  <v type="int" >       97 </v>
  <v type="int" >       99 </v>
  <v type="int" >       71 </v>
  <v type="int" >      106 </v>
  <v type="int" >        7 </v>
  <v type="int" >       59 </v>
  <v type="int" >      107 </v>
  <v type="int" >      109 </v>
  <v type="int" >       92 </v>
  <v type="int" >       52 </v>
  <v type="int" >       70 </v>
  <v type="int" >       53 </v>
  <v type="int" >       60 </v>
  <v type="int" >       95 </v>
  <v type="int" >      112 </v>
  <v type="int" >       96 </v>
  <v type="int" >       75 </v>
  <v type="int" >       27 </v>
  <v type="int" >       58 </v>
  <v type="int" >       77 </v>
  <v type="int" >       30 </v>
  <v type="int" >      102 </v>
  <v type="int" >       19 </v>
  <v type="int" >       16 </v>
  <v type="int" >       80 </v>
  <v type="int" >       26 </v>
  <v type="int" >       91 </v>
  <v type="int" >       54 </v>
  <v type="int" >       81 </v>
  <v type="int" >       61 </v>
  <v type="int" >       24 </v>
  <v type="int" >       87 </v>
  <v type="int" >       25 </v>
  <v type="int" >       14 </v>
  <v type="int" >       57 </v>
  <v type="int" >       11 </v>
  <v type="int" >       72 </v>
  <v type="int" >      114 </v>
  <v type="int" >       88 </v>
  <v type="int" >       56 </v>
  <v type="int" >       73 </v>
  <v type="int" >       90 </v>
  <v type="int" >       62 </v>
  <v type="int" >       79 </v>
  <v type="int" >       78 </v>
  <v type="int" >       22 </v>
  <v type="int" >      113 </v>
  <v type="int" >       21 </v>
  <v type="int" >      110 </v>
  <v type="int" >       82 </v>
  <v type="int" >       23 </v>
  <v type="int" >      111 </v>
  <v type="int" >       18 </v>
  <v type="int" >      108 </v>
  <v type="int" >       66 </v>
  <v type="int" >       63 </v>
  <v type="int" >       89 </v>
  <v type="int" >      101 </v>
  <v type="int" >       84 </v>
  <v type="int" >       76 </v>
  <v type="int" >       20 </v>
  <v type="int" >       86 </v>
  <v type="int" >       74 </v>
  <v type="int" >       65 </v>
  <v type="int" >       10 </v>
  <v type="int" >       85 </v>
  <v type="int" >       17 </v>
  <v type="int" >       83 </v>
  <v type="int" >       29 </v>
  <v type="int" >       64 </v>
 </varray>
 <kpoints>
  <generation param="listgenerated">
   <i name="divisions" type="int">      20 </i>
   <v>       0.00000000       0.00000000       0.00000000 </v>
   <v>       0.50000000       0.00000000       0.00000000 </v>
   <v>       0.33333333       0.33333333       0.00000000 </v>
   <v>       0.00000000       0.00000000       0.00000000 </v>
  </generation>
  <varray name="kpointlist" >
   <v>       0.00000000       0.00000000       0.00000000 </v>
   <v>       0.02631579       0.00000000       0.00000000 </v>
   <v>       0.05263158       0.00000000       0.00000000 </v>
   <v>       0.07894737       0.00000000       0.00000000 </v>
   <v>       0.10526316       0.00000000       0.00000000 </v>
   <v>       0.13157895       0.00000000       0.00000000 </v>
   <v>       0.15789474       0.00000000       0.00000000 </v>
   <v>       0.18421053       0.00000000       0.00000000 </v>
   <v>       0.21052632       0.00000000       0.00000000 </v>
   <v>       0.23684211       0.00000000       0.00000000 </v>
   <v>       0.26315789       0.00000000       0.00000000 </v>
   <v>       0.28947368       0.00000000       0.00000000 </v>
   <v>       0.31578947       0.00000000       0.00000000 </v>
   <v>       0.34210526       0.00000000       0.00000000 </v>
   <v>       0.36842105       0.00000000       0.00000000 </v>
   <v>       0.39473684       0.00000000       0.00000000 </v>
   <v>       0.42105263       0.00000000       0.00000000 </v>
   <v>       0.44736842       0.00000000       0.00000000 </v>
   <v>       0.47368421       0.00000000       0.00000000 </v>
   <v>       0.50000000       0.00000000       0.00000000 </v>
   <v>       0.50000000       0.00000000       0.00000000 </v>
   <v>       0.49122807       0.01754386       0.00000000 </v>
   <v>       0.48245614       0.03508772       0.00000000 </v>
   <v>       0.47368421       0.05263158       0.00000000 </v>
   <v>       0.46491228       0.07017544       0.00000000 </v>
   <v>       0.45614035       0.08771930       0.00000000 </v>
   <v>       0.44736842       0.10526316       0.00000000 </v>
   <v>       0.43859649       0.12280702       0.00000000 </v>
   <v>       0.42982456       0.14035088       0.00000000 </v>
   <v>       0.42105263       0.15789474       0.00000000 </v>
   <v>       0.41228070       0.17543860       0.00000000 </v>
   <v>       0.40350877       0.19298246       0.00000000 </v>
   <v>       0.39473684       0.21052632       0.00000000 </v>
   <v>       0.38596491       0.22807018       0.00000000 </v>
   <v>       0.37719298       0.24561404       0.00000000 </v>
   <v>       0.36842105       0.26315789       0.00000000 </v>
   <v>       0.35964912       0.28070175       0.00000000 </v>
   <v>       0.35087719       0.29824561       0.00000000 </v>
   <v>       0.34210526       0.31578947       0.00000000 </v>
   <v>       0.33333333       0.33333333       0.00000000 </v>
   <v>       0.33333333       0.33333333       0.00000000 </v>
   <v>       0.31578947       0.31578947       0.00000000 </v>
   <v>       0.29824561       0.29824561       0.00000000 </v>
   <v>       0.28070175       0.28070175       0.00000000 </v>
   <v>       0.26315789       0.26315789       0.00000000 </v>
   <v>       0.24561404       0.24561404       0.00000000 </v>
   <v>       0.22807018       0.22807018       0.00000000 </v>
   <v>       0.21052632       0.21052632       0.00000000 </v>
   <v>       0.19298246       0.19298246       0.00000000 </v>
   <v>       0.17543860       0.17543860       0.00000000 </v>
   <v>       0.15789474       0.15789474       0.00000000 </v>
   <v>       0.14035088       0.14035088       0.00000000 </v>
   <v>       0.12280702       0.12280702       0.00000000 </v>
   <v>       0.10526316       0.10526316       0.00000000 </v>
   <v>       0.08771930       0.08771930       0.00000000 </v>
   <v>       0.07017544       0.07017544       0.00000000 </v>
   <v>       0.05263158       0.05263158       0.00000000 </v>
   <v>       0.03508772       0.03508772       0.00000000 </v>
   <v>       0.01754386       0.01754386       0.00000000 </v>
   <v>       0.00000000       0.00000000       0.00000000 </v>
  </varray>
  <varray name="weights" >
   <v>       0.01666667 </v>
   <v>       0.01666667 </v>
   <v>       0.01666667 </v>
   <v>       0.01666667 </v>
   <v>       0.01666667 </v>
   <v>       0.01666667 </v>
   <v>       0.01666667 </v>
   <v>       0.01666667 </v>
   <v>       0.01666667 </v>
   <v>       0.01666667 </v>
   <v>       0.01666667 </v>
   <v>       0.01666667 </v>
   <v>       0.01666667 </v>
   <v>       0.01666667 </v>
   <v>       0.01666667 </v>
   <v>       0.01666667 </v>
   <v>       0.01666667 </v>
   <v>       0.01666667 </v>
   <v>       0.01666667 </v>
   <v>       0.01666667 </v>
   <v>       0.01666667 </v>
   <v>       0.01666667 </v>
   <v>       0.01666667 </v>
   <v>       0.01666667 </v>
   <v>       0.01666667 </v>
   <v>       0.01666667 </v>
   <v>       0.01666667 </v>
   <v>       0.01666667 </v>
   <v>       0.01666667 </v>
   <v>       0.01666667 </v>
   <v>       0.01666667 </v>
   <v>       0.01666667 </v>
   <v>       0.01666667 </v>
   <v>       0.01666667 </v>
   <v>       0.01666667 </v>
   <v>       0.01666667 </v>
   <v>       0.01666667 </v>
   <v>       0.01666667 </v>
   <v>       0.01666667 </v>
   <v>       0.01666667 </v>
   <v>       0.01666667 </v>
   <v>       0.01666667 </v>
   <v>       0.01666667 </v>
   <v>       0.01666667 </v>
   <v>       0.01666667 </v>
   <v>       0.01666667 </v>
   <v>       0.01666667 </v>
   <v>       0.01666667 </v>
   <v>       0.01666667 </v>
   <v>       0.01666667 </v>
   <v>       0.01666667 </v>
   <v>       0.01666667 </v>
   <v>       0.01666667 </v>
   <v>       0.01666667 </v>
   <v>       0.01666667 </v>
   <v>       0.01666667 </v>
   <v>       0.01666667 </v>
   <v>       0.01666667 </v>
   <v>       0.01666667 </v>
   <v>       0.01666667 </v>
  </varray>
 </kpoints>
 <parameters>
  <separator name="general" >
   <i type="string" name="SYSTEM">Simulation for cell shape cell volume r</i>
   <i type="logical" name="LCOMPAT"> F  </i>
  </separator>
  <separator name="electronic" >
   <i type="string" name="PREC">high</i>
   <i name="ENMAX">    500.00000000</i>
   <i name="ENAUG">    644.87300000</i>
   <i name="EDIFF">      0.00001000</i>
   <i type="int" name="IALGO">    38</i>
   <i type="int" name="IWAVPR">    10</i>
   <i type="int" name="NBANDS">   256</i>
   <i name="NELECT">    378.00000000</i>
   <i type="int" name="TURBO">     0</i>
   <i type="int" name="IRESTART">     0</i>
   <i type="int" name="NREBOOT">     0</i>
   <i type="int" name="NMIN">     0</i>
   <i name="EREF">      0.00000000</i>
   <separator name="electronic smearing" >
    <i type="int" name="ISMEAR">     0</i>
    <i name="SIGMA">      0.01000000</i>
    <i name="KSPACING">      0.50000000</i>
    <i type="logical" name="KGAMMA"> T  </i>
   </separator>
   <separator name="electronic projectors" >
    <i type="logical" name="LREAL"> T  </i>
    <v name="ROPT">     -0.00040000     -0.00040000     -0.00040000</v>
    <i type="int" name="LMAXPAW">  -100</i>
    <i type="int" name="LMAXMIX">     2</i>
    <i type="logical" name="NLSPLINE"> F  </i>
   </separator>
   <separator name="electronic startup" >
    <i type="int" name="ISTART">     1</i>
    <i type="int" name="ICHARG">    11</i>
    <i type="int" name="INIWAV">     1</i>
   </separator>
   <separator name="electronic spin" >
    <i type="int" name="ISPIN">     1</i>
    <i type="logical" name="LNONCOLLINEAR"> F  </i>
    <v name="MAGMOM">      1.00000000      1.00000000      1.00000000      1.00000000      1.00000000      1.00000000      1.00000000      1.00000000      1.00000000      1.00000000      1.00000000      1.00000000      1.00000000      1.00000000      1.00000000      1.00000000      1.00000000      1.00000000      1.00000000      1.00000000
      1.00000000      1.00000000      1.00000000      1.00000000      1.00000000      1.00000000      1.00000000      1.00000000      1.00000000      1.00000000      1.00000000      1.00000000      1.00000000      1.00000000      1.00000000      1.00000000      1.00000000      1.00000000      1.00000000      1.00000000
      1.00000000      1.00000000      1.00000000      1.00000000      1.00000000      1.00000000      1.00000000      1.00000000      1.00000000      1.00000000      1.00000000      1.00000000      1.00000000      1.00000000      1.00000000      1.00000000      1.00000000      1.00000000      1.00000000      1.00000000
      1.00000000      1.00000000      1.00000000      1.00000000      1.00000000      1.00000000      1.00000000      1.00000000      1.00000000      1.00000000      1.00000000      1.00000000      1.00000000      1.00000000      1.00000000      1.00000000      1.00000000      1.00000000      1.00000000      1.00000000
      1.00000000      1.00000000      1.00000000      1.00000000      1.00000000      1.00000000      1.00000000      1.00000000      1.00000000      1.00000000      1.00000000      1.00000000      1.00000000      1.00000000      1.00000000      1.00000000      1.00000000      1.00000000      1.00000000      1.00000000
      1.00000000      1.00000000      1.00000000      1.00000000      1.00000000      1.00000000      1.00000000      1.00000000      1.00000000      1.00000000      1.00000000      1.00000000      1.00000000      1.00000000</v>
    <i name="NUPDOWN">     -1.00000000</i>
    <i type="logical" name="LSORBIT"> F  </i>
    <v name="SAXIS">      0.00000000      0.00000000      1.00000000</v>
    <i type="logical" name="LSPIRAL"> F  </i>
    <v name="QSPIRAL">      0.00000000      0.00000000      0.00000000</v>
    <i type="logical" name="LZEROZ"> F  </i>
   </separator>
   <separator name="electronic exchange-correlation" >
    <i type="logical" name="LASPH"> F  </i>
    <i type="logical" name="LMETAGGA"> F  </i>
   </separator>
   <separator name="electronic convergence" >
    <i type="int" name="NELM">   200</i>
    <i type="int" name="NELMDL">     0</i>
    <i type="int" name="NELMIN">     2</i>
    <i name="ENINI">    500.00000000</i>
    <separator name="electronic convergence detail" >
     <i type="logical" name="LDIAG"> T  </i>
     <i type="logical" name="LSUBROT"> F  </i>
     <i name="WEIMIN">      0.00000000</i>
     <i name="EBREAK">      0.00000001</i>
     <i name="DEPER">      0.30000000</i>
     <i type="int" name="NRMM">     4</i>
     <i name="TIME">      0.40000000</i>
    </separator>
   </separator>
   <separator name="electronic mixer" >
    <i name="AMIX">      0.40000000</i>
    <i name="BMIX">      1.00000000</i>
    <i name="AMIN">      0.10000000</i>
    <i name="AMIX_MAG">      1.60000000</i>
    <i name="BMIX_MAG">      1.00000000</i>
    <separator name="electronic mixer details" >
     <i type="int" name="IMIX">     4</i>
     <i type="logical" name="MIXFIRST"> F  </i>
     <i type="int" name="MAXMIX">   -45</i>
     <i name="WC">    100.00000000</i>
     <i type="int" name="INIMIX">     1</i>
     <i type="int" name="MIXPRE">     1</i>
     <i type="int" name="MREMOVE">     5</i>
    </separator>
   </separator>
   <separator name="electronic dipolcorrection" >
    <i type="logical" name="LDIPOL"> F  </i>
    <i type="logical" name="LMONO"> F  </i>
    <i type="int" name="IDIPOL">     0</i>
    <i name="EPSILON">      1.00000000</i>
    <v name="DIPOL">   -100.00000000   -100.00000000   -100.00000000</v>
    <i name="EFIELD">      0.00000000</i>
   </separator>
  </separator>
  <separator name="grids" >
   <i type="int" name="NGX">   180</i>
   <i type="int" name="NGY">   180</i>
   <i type="int" name="NGZ">   150</i>
   <i type="int" name="NGXF">   256</i>
   <i type="int" name="NGYF">   256</i>
   <i type="int" name="NGZF">   224</i>
   <i type="logical" name="ADDGRID"> F  </i>
  </separator>
  <separator name="ionic" >
   <i type="int" name="NSW">     0</i>
   <i type="int" name="IBRION">    -1</i>
   <i type="int" name="MDALGO">     0</i>
   <i type="int" name="ISIF">     2</i>
   <i name="PSTRESS">      0.00000000</i>
   <i name="EDIFFG">     -0.01000000</i>
   <i type="int" name="NFREE">     0</i>
   <i name="POTIM">      0.30000000</i>
   <i name="SMASS">     -3.00000000</i>
   <i name="SCALEE">      1.00000000</i>
  </separator>
  <separator name="ionic md" >
   <i name="TEBEG">      0.00010000</i>
   <i name="TEEND">      0.00010000</i>
   <i type="int" name="NBLOCK">     1</i>
   <i type="int" name="KBLOCK">     1</i>
   <i type="int" name="NPACO">   256</i>
   <i name="APACO">     16.00000000</i>
  </separator>
  <separator name="symmetry" >
   <i type="int" name="ISYM">     2</i>
   <i name="SYMPREC">      0.00001000</i>
  </separator>
  <separator name="dos" >
   <i type="int" name="LORBIT">     0</i>
   <v name="RWIGS">     -1.00000000     -1.00000000     -1.00000000</v>
   <i type="int" name="NEDOS">   301</i>
   <i name="EMIN">     10.00000000</i>
   <i name="EMAX">    -10.00000000</i>
   <i name="EFERMI">      0.00000000</i>
  </separator>
  <separator name="writing" >
   <i type="int" name="NWRITE">     0</i>
   <i type="logical" name="LWAVE"> F  </i>
   <i type="logical" name="LDOWNSAMPLE"> F  </i>
   <i type="logical" name="LCHARG"> F  </i>
   <i type="logical" name="LPARD"> F  </i>
   <i type="logical" name="LVTOT"> F  </i>
   <i type="logical" name="LVHAR"> F  </i>
   <i type="logical" name="LELF"> F  </i>
   <i type="logical" name="LOPTICS"> F  </i>
   <v name="STM">      0.00000000      0.00000000      0.00000000      0.00000000      0.00000000      0.00000000      0.00000000</v>
  </separator>
  <separator name="performance" >
   <i type="int" name="NPAR">    16</i>
   <i type="int" name="NSIM">     4</i>
   <i type="int" name="NBLK">    -1</i>
   <i type="logical" name="LPLANE"> T  </i>
   <i type="logical" name="LSCALAPACK"> T  </i>
   <i type="logical" name="LSCAAWARE"> F  </i>
   <i type="logical" name="LSCALU"> F  </i>
   <i type="logical" name="LASYNC"> F  </i>
   <i type="logical" name="LORBITALREAL"> F  </i>
  </separator>
  <separator name="miscellaneous" >
   <i type="int" name="IDIOT">     3</i>
   <i type="int" name="ISPECIAL">     0</i>
   <i type="logical" name="LMUSIC"> F  </i>
   <v name="POMASS">      1.00000000     12.01100000     14.00100000</v>
   <v name="DARWINR">      0.00000000      0.00000000      0.00000000</v>
   <v name="DARWINV">      1.00000000      1.00000000      1.00000000</v>
   <i type="logical" name="LCORR"> T  </i>
  </separator>
  <i type="logical" name="GGA_COMPAT"> T  </i>
  <i type="logical" name="LBERRY"> F  </i>
  <i type="int" name="ICORELEVEL">     0</i>
  <i type="logical" name="LDAU"> F  </i>
  <i type="int" name="I_CONSTRAINED_M">     0</i>
  <separator name="electronic exchange-correlation" >
   <i type="string" name="GGA">PE</i>
   <i type="int" name="VOSKOWN">     0</i>
   <i type="logical" name="LHFCALC"> F  </i>
   <i type="string" name="PRECFOCK"></i>
   <i type="logical" name="LSYMGRAD"> F  </i>
   <i type="logical" name="LHFONE"> F  </i>
   <i type="logical" name="LRHFCALC"> F  </i>
   <i type="logical" name="LTHOMAS"> F  </i>
   <i type="logical" name="LMODELHF"> F  </i>
   <i name="ENCUT4O">     -1.00000000</i>
   <i type="int" name="EXXOEP">     0</i>
   <i type="int" name="FOURORBIT">     0</i>
   <i name="AEXX">      0.00000000</i>
   <i name="HFALPHA">      0.00000000</i>
   <i name="MCALPHA">      0.00000000</i>
   <i name="ALDAX">      1.00000000</i>
   <i name="AGGAX">      1.00000000</i>
   <i name="ALDAC">      1.00000000</i>
   <i name="AGGAC">      1.00000000</i>
   <i type="int" name="NKREDX">     1</i>
   <i type="int" name="NKREDY">     1</i>
   <i type="int" name="NKREDZ">     1</i>
   <i type="logical" name="SHIFTRED"> F  </i>
   <i type="logical" name="ODDONLY"> F  </i>
   <i type="logical" name="EVENONLY"> F  </i>
   <i type="int" name="LMAXFOCK">     0</i>
   <i type="int" name="NMAXFOCKAE">     0</i>
   <i type="logical" name="LFOCKAEDFT"> F  </i>
   <i name="HFSCREEN">      0.00000000</i>
   <i name="HFSCREENC">      0.00000000</i>
   <i type="int" name="NBANDSGWLOW">     0</i>
  </separator>
  <separator name="vdW DFT" >
   <i type="logical" name="LUSE_VDW"> F  </i>
   <i name="Zab_VDW">     -0.84910000</i>
   <i name="PARAM1">      0.12340000</i>
   <i name="PARAM2">      1.00000000</i>
   <i name="PARAM3">      0.00000000</i>
  </separator>
  <separator name="model GW" >
   <i type="int" name="MODEL_GW">     0</i>
   <i name="MODEL_EPS0">     48.84629658</i>
   <i name="MODEL_ALPHA">      1.00000000</i>
  </separator>
  <separator name="linear response parameters" >
   <i type="logical" name="LEPSILON"> F  </i>
   <i type="logical" name="LRPA"> F  </i>
   <i type="logical" name="LNABLA"> F  </i>
   <i type="logical" name="LVEL"> F  </i>
   <i type="int" name="KINTER">     0</i>
   <i name="CSHIFT">      0.10000000</i>
   <i name="OMEGAMAX">     -1.00000000</i>
   <i name="DEG_THRESHOLD">      0.00200000</i>
   <i name="RTIME">     -0.10000000</i>
   <i name="WPLASMAI">      0.00000000</i>
   <v name="DFIELD">      0.00000000      0.00000000      0.00000000</v>
   <v name="WPLASMA">      0.00000000      0.00000000      0.00000000      0.00000000      0.00000000      0.00000000      0.00000000      0.00000000      0.00000000</v>
  </separator>
  <separator name="orbital magnetization" >
   <i type="logical" name="NUCIND"> F  </i>
   <v name="MAGPOS">      0.00000000      0.00000000      0.00000000</v>
   <i type="logical" name="LNICSALL"> T  </i>
   <i type="logical" name="ORBITALMAG"> F  </i>
   <i type="logical" name="LMAGBLOCH"> F  </i>
   <i type="logical" name="LCHIMAG"> F  </i>
   <i type="logical" name="LGAUGE"> T  </i>
   <i type="int" name="MAGATOM">     0</i>
   <v name="MAGDIPOL">      0.00000000      0.00000000      0.00000000</v>
   <v name="AVECCONST">      0.00000000      0.00000000      0.00000000</v>
  </separator>
  <separator name="response functions" >
   <i type="logical" name="LADDER"> F  </i>
   <i type="logical" name="LRPAFORCE"> F  </i>
   <i type="logical" name="LFXC"> F  </i>
   <i type="logical" name="LHARTREE"> T  </i>
   <i type="int" name="IBSE">     0</i>
   <v type="int" name="KPOINT">    -1     0     0     0</v>
   <i type="logical" name="LTCTE"> F  </i>
   <i type="logical" name="LTETE"> F  </i>
   <i type="logical" name="LTRIPLET"> F  </i>
   <i type="logical" name="LFXCEPS"> F  </i>
   <i type="logical" name="LFXHEG"> F  </i>
   <i type="int" name="NATURALO">     2</i>
   <i type="logical" name="L2ORDER"> F  </i>
   <i type="logical" name="LMP2LT"> F  </i>
   <i type="logical" name="LUSEW"> F  </i>
   <i name="ENCUTGW">     -2.00000000</i>
   <i name="ENCUTGWSOFT">     -2.00000000</i>
   <i name="ENCUTLF">     -1.00000000</i>
   <i type="int" name="LMAXMP2">    -1</i>
   <i name="SCISSOR">      0.00000000</i>
   <i type="int" name="NOMEGA">     0</i>
   <i type="int" name="NOMEGAR">     0</i>
   <i type="int" name="NBANDSGW">    -1</i>
   <i type="int" name="NBANDSO">    -1</i>
   <i type="int" name="NBANDSV">    -1</i>
   <i type="int" name="NELM">   200</i>
   <i type="int" name="NELMHF">     1</i>
   <i type="int" name="DIM">     3</i>
   <i type="int" name="ANTIRES">     0</i>
   <i name="OMEGAMAX">    -30.00000000</i>
   <i name="OMEGAMIN">    -30.00000000</i>
   <i name="OMEGATL">   -200.00000000</i>
   <i type="int" name="OMEGAGRID">   140</i>
   <i name="CSHIFT">     -0.10000000</i>
   <i type="logical" name="SELFENERGY"> F  </i>
   <i type="logical" name="LSPECTRAL"> F  </i>
   <i type="logical" name="LSPECTRALGW"> F  </i>
   <i type="logical" name="LSINGLES"> F  </i>
   <i type="logical" name="LFERMIGW"> F  </i>
   <i type="logical" name="ODDONLYGW"> F  </i>
   <i type="logical" name="EVENONLYGW"> F  </i>
   <i type="int" name="NKREDLFX">     1</i>
   <i type="int" name="NKREDLFY">     1</i>
   <i type="int" name="NKREDLFZ">     1</i>
   <i type="int" name="MAXMEM">  2800</i>
   <i type="int" name="TELESCOPE">     0</i>
   <i type="int" name="TAUPAR">     1</i>
   <i type="int" name="OMEGAPAR">    -1</i>
   <i name="LAMBDA">      1.00000000</i>
  </separator>
  <separator name="External order field" >
   <i name="OFIELD_KAPPA">      0.00000000</i>
   <v name="OFIELD_K">      0.00000000      0.00000000      0.00000000</v>
   <i name="OFIELD_Q6_NEAR">      0.00000000</i>
   <i name="OFIELD_Q6_FAR">      0.00000000</i>
   <i name="OFIELD_A">      0.00000000</i>
  </separator>
  <separator name="solvation model" >
   <i type="logical" name="LSOL"> F  </i>
  </separator>
 </parameters>
 <atominfo>
  <atoms>     114 </atoms>
  <types>       3 </types>
  <array name="atoms" >
   <dimension dim="1">ion</dimension>
   <field type="string">element</field>
   <field type="int">atomtype</field>
   <set>
    <rc><c>H </c><c>   1</c></rc>
    <rc><c>H </c><c>   1</c></rc>
    <rc><c>H </c><c>   1</c></rc>
    <rc><c>H </c><c>   1</c></rc>
    <rc><c>H </c><c>   1</c></rc>
    <rc><c>H </c><c>   1</c></rc>
    <rc><c>H </c><c>   1</c></rc>
    <rc><c>H </c><c>   1</c></rc>
    <rc><c>H </c><c>   1</c></rc>
    <rc><c>H </c><c>   1</c></rc>
    <rc><c>H </c><c>   1</c></rc>
    <rc><c>H </c><c>   1</c></rc>
    <rc><c>H </c><c>   1</c></rc>
    <rc><c>H </c><c>   1</c></rc>
    <rc><c>H </c><c>   1</c></rc>
    <rc><c>H </c><c>   1</c></rc>
    <rc><c>H </c><c>   1</c></rc>
    <rc><c>H </c><c>   1</c></rc>
    <rc><c>H </c><c>   1</c></rc>
    <rc><c>H </c><c>   1</c></rc>
    <rc><c>H </c><c>   1</c></rc>
    <rc><c>H </c><c>   1</c></rc>
    <rc><c>H </c><c>   1</c></rc>
    <rc><c>H </c><c>   1</c></rc>
    <rc><c>H </c><c>   1</c></rc>
    <rc><c>H </c><c>   1</c></rc>
    <rc><c>H </c><c>   1</c></rc>
    <rc><c>H </c><c>   1</c></rc>
    <rc><c>H </c><c>   1</c></rc>
    <rc><c>H </c><c>   1</c></rc>
    <rc><c>C </c><c>   2</c></rc>
    <rc><c>C </c><c>   2</c></rc>
    <rc><c>C </c><c>   2</c></rc>
    <rc><c>C </c><c>   2</c></rc>
    <rc><c>C </c><c>   2</c></rc>
    <rc><c>C </c><c>   2</c></rc>
    <rc><c>C </c><c>   2</c></rc>
    <rc><c>C </c><c>   2</c></rc>
    <rc><c>C </c><c>   2</c></rc>
    <rc><c>C </c><c>   2</c></rc>
    <rc><c>C </c><c>   2</c></rc>
    <rc><c>C </c><c>   2</c></rc>
    <rc><c>C </c><c>   2</c></rc>
    <rc><c>C </c><c>   2</c></rc>
    <rc><c>C </c><c>   2</c></rc>
    <rc><c>C </c><c>   2</c></rc>
    <rc><c>C </c><c>   2</c></rc>
    <rc><c>C </c><c>   2</c></rc>
    <rc><c>C </c><c>   2</c></rc>
    <rc><c>C </c><c>   2</c></rc>
    <rc><c>C </c><c>   2</c></rc>
    <rc><c>C </c><c>   2</c></rc>
    <rc><c>C </c><c>   2</c></rc>
    <rc><c>C </c><c>   2</c></rc>
    <rc><c>C </c><c>   2</c></rc>
    <rc><c>C </c><c>   2</c></rc>
    <rc><c>C </c><c>   2</c></rc>
    <rc><c>C </c><c>   2</c></rc>
    <rc><c>C </c><c>   2</c></rc>
    <rc><c>C </c><c>   2</c></rc>
    <rc><c>C </c><c>   2</c></rc>
    <rc><c>C </c><c>   2</c></rc>
    <rc><c>C </c><c>   2</c></rc>
    <rc><c>C </c><c>   2</c></rc>
    <rc><c>C </c><c>   2</c></rc>
    <rc><c>C </c><c>   2</c></rc>
    <rc><c>C </c><c>   2</c></rc>
    <rc><c>C </c><c>   2</c></rc>
    <rc><c>C </c><c>   2</c></rc>
    <rc><c>C </c><c>   2</c></rc>
    <rc><c>C </c><c>   2</c></rc>
    <rc><c>C </c><c>   2</c></rc>
    <rc><c>C </c><c>   2</c></rc>
    <rc><c>C </c><c>   2</c></rc>
    <rc><c>C </c><c>   2</c></rc>
    <rc><c>C </c><c>   2</c></rc>
    <rc><c>C </c><c>   2</c></rc>
    <rc><c>C </c><c>   2</c></rc>
    <rc><c>C </c><c>   2</c></rc>
    <rc><c>C </c><c>   2</c></rc>
    <rc><c>C </c><c>   2</c></rc>
    <rc><c>C </c><c>   2</c></rc>
    <rc><c>C </c><c>   2</c></rc>
    <rc><c>C </c><c>   2</c></rc>
    <rc><c>C </c><c>   2</c></rc>
    <rc><c>C </c><c>   2</c></rc>
    <rc><c>C </c><c>   2</c></rc>
    <rc><c>C </c><c>   2</c></rc>
    <rc><c>C </c><c>   2</c></rc>
    <rc><c>C </c><c>   2</c></rc>
    <rc><c>C </c><c>   2</c></rc>
    <rc><c>C </c><c>   2</c></rc>
    <rc><c>C </c><c>   2</c></rc>
    <rc><c>C </c><c>   2</c></rc>
    <rc><c>C </c><c>   2</c></rc>
    <rc><c>C </c><c>   2</c></rc>
    <rc><c>C </c><c>   2</c></rc>
    <rc><c>C </c><c>   2</c></rc>
    <rc><c>C </c><c>   2</c></rc>
    <rc><c>C </c><c>   2</c></rc>
    <rc><c>C </c><c>   2</c></rc>
    <rc><c>C </c><c>   2</c></rc>
    <rc><c>N </c><c>   3</c></rc>
    <rc><c>N </c><c>   3</c></rc>
    <rc><c>N </c><c>   3</c></rc>
    <rc><c>N </c><c>   3</c></rc>
    <rc><c>N </c><c>   3</c></rc>
    <rc><c>N </c><c>   3</c></rc>
    <rc><c>N </c><c>   3</c></rc>
    <rc><c>N </c><c>   3</c></rc>
    <rc><c>N </c><c>   3</c></rc>
    <rc><c>N </c><c>   3</c></rc>
    <rc><c>N </c><c>   3</c></rc>
    <rc><c>N </c><c>   3</c></rc>
   </set>
  </array>
  <array name="atomtypes" >
   <dimension dim="1">type</dimension>
   <field type="int">atomspertype</field>
   <field type="string">element</field>
   <field>mass</field>
   <field>valence</field>
   <field type="string">pseudopotential</field>
   <set>
    <rc><c>  30</c><c>H </c><c>      1.00000000</c><c>      1.00000000</c><c>  PAW_PBE H 15Jun2001                   </c></rc>
    <rc><c>  72</c><c>C </c><c>     12.01100000</c><c>      4.00000000</c><c>  PAW_PBE C 08Apr2002                   </c></rc>
    <rc><c>  12</c><c>N </c><c>     14.00100000</c><c>      5.00000000</c><c>  PAW_PBE N 08Apr2002                   </c></rc>
   </set>
  </array>
 </atominfo>
 <structure name="initialpos" >
  <crystal>
   <varray name="basis" >
    <v>      23.14732842      -0.00228767       0.00000000 </v>
    <v>     -11.57559546      20.04837406       0.00000000 </v>
    <v>       0.00000006      -0.00059550      20.00000000 </v>
   </varray>
   <i name="volume">   9280.79635077 </i>
   <varray name="rec_basis" >
    <v>       0.04320400       0.02494526       0.00000074 </v>
    <v>       0.00000493       0.04988220       0.00000149 </v>
    <v>       0.00000000       0.00000000       0.05000000 </v>
   </varray>
  </crystal>
  <varray name="positions" >
   <v>       0.21084322       0.72206374       0.61763122 </v>
   <v>       0.25091670       0.62347894       0.51028106 </v>
   <v>       0.08322131       0.39211160       0.51083323 </v>
   <v>       0.08328365       0.68708236       0.50927690 </v>
   <v>       0.21032562       0.48359133       0.40317489 </v>
   <v>       0.40683133       0.77988397       0.51030763 </v>
   <v>       0.40464744       0.07060715       0.50948024 </v>
   <v>       0.34311929       0.94744479       0.51080371 </v>
   <v>       0.40742612       0.62408717       0.51062668 </v>
   <v>       0.40524956       0.33118209       0.51084638 </v>
   <v>       0.34370087       0.39277817       0.50945057 </v>
   <v>       0.54655340       0.82071424       0.61740393 </v>
   <v>       0.30853601       0.48493002       0.61754905 </v>
   <v>       0.49714135       0.19838501       0.61774354 </v>
   <v>       0.30725853       0.82074598       0.40321445 </v>
   <v>       0.54712625       0.72325635       0.40314232 </v>
   <v>       0.49614708       0.29528879       0.40329808 </v>
   <v>       0.63604017       0.23831924       0.51068922 </v>
   <v>       0.63809777       0.94754543       0.50948919 </v>
   <v>       0.63656229       0.39478917       0.51064733 </v>
   <v>       0.63876898       0.68771211       0.51095456 </v>
   <v>       0.69968462       0.07072027       0.51093593 </v>
   <v>       0.70029615       0.62607112       0.50949584 </v>
   <v>       0.83210283       0.29583033       0.61796499 </v>
   <v>       0.73477722       0.53235768       0.61808248 </v>
   <v>       0.79241122       0.39423850       0.51092094 </v>
   <v>       0.96004440       0.33054195       0.50960510 </v>
   <v>       0.96009353       0.62548444       0.51076662 </v>
   <v>       0.73582366       0.19710846       0.40354082 </v>
   <v>       0.83406081       0.53588038       0.40370051 </v>
   <v>       0.20787293       0.70630144       0.50958597 </v>
   <v>       0.23516347       0.74156051       0.56944682 </v>
   <v>       0.28918622       0.49006311       0.56941739 </v>
   <v>       0.20804798       0.49787761       0.51100033 </v>
   <v>       0.05726355       0.52661646       0.50997881 </v>
   <v>       0.09270334       0.49044498       0.51025975 </v>
   <v>       0.16300891       0.52661882       0.51059401 </v>
   <v>       0.19644212       0.59626029       0.51018475 </v>
   <v>       0.16301252       0.63246333       0.50966000 </v>
   <v>       0.09270609       0.59823076       0.50976429 </v>
   <v>       0.05571582       0.41903090       0.51034722 </v>
   <v>       0.05574024       0.63265977       0.50973317 </v>
   <v>       0.28828866       0.79593312       0.45128673 </v>
   <v>       0.23508861       0.48931536       0.45126026 </v>
   <v>       0.50361540       0.97353252       0.51008365 </v>
   <v>       0.43200290       0.93806475       0.51030472 </v>
   <v>       0.39784334       0.86776855       0.51060628 </v>
   <v>       0.43406767       0.83435066       0.51021056 </v>
   <v>       0.50371574       0.86783007       0.50969495 </v>
   <v>       0.53980008       0.93811872       0.50988713 </v>
   <v>       0.39755000       0.97500964       0.51034756 </v>
   <v>       0.53919477       0.04471752       0.51010941 </v>
   <v>       0.50300388       0.08014337       0.50996570 </v>
   <v>       0.53912652       0.15045261       0.50993070 </v>
   <v>       0.43159090       0.04312890       0.50990292 </v>
   <v>       0.50421823       0.52727204       0.51016841 </v>
   <v>       0.54041912       0.59889649       0.51044186 </v>
   <v>       0.50433773       0.63312303       0.51080080 </v>
   <v>       0.43467662       0.59687836       0.51044753 </v>
   <v>       0.39843211       0.52723454       0.50984918 </v>
   <v>       0.43259561       0.49109900       0.50995638 </v>
   <v>       0.39813954       0.41969138       0.50988835 </v>
   <v>       0.53978733       0.49164703       0.51013711 </v>
   <v>       0.53968929       0.38582919       0.51072165 </v>
   <v>       0.50359205       0.42003412       0.51035550 </v>
   <v>       0.43217764       0.38561282       0.51036616 </v>
   <v>       0.32402825       0.82281374       0.51099520 </v>
   <v>       0.53277661       0.82306984       0.50948027 </v>
   <v>       0.54129003       0.79612257       0.56930634 </v>
   <v>       0.53319434       0.70695831       0.51102888 </v>
   <v>       0.32460443       0.49832781       0.50962275 </v>
   <v>       0.51032608       0.19547306       0.50978639 </v>
   <v>       0.50235068       0.22285194       0.56958284 </v>
   <v>       0.51069966       0.31200103       0.51109944 </v>
   <v>       0.54160508       0.74243655       0.45122687 </v>
   <v>       0.50178643       0.27623179       0.45140508 </v>
   <v>       0.61120589       0.97508099       0.50990355 </v>
   <v>       0.60878025       0.18385852       0.51049193 </v>
   <v>       0.64498992       0.15043260       0.51078909 </v>
   <v>       0.61081183       0.08014446       0.51036760 </v>
   <v>       0.64525608       0.04319237       0.51040937 </v>
   <v>       0.61182954       0.63328666       0.51045240 </v>
   <v>       0.61140582       0.52779989       0.50996729 </v>
   <v>       0.64558500       0.49167863       0.50991204 </v>
   <v>       0.60934668       0.42203421       0.51045113 </v>
   <v>       0.64586123       0.59920126       0.50994643 </v>
   <v>       0.83530286       0.31149235       0.50991049 </v>
   <v>       0.80778371       0.27638777       0.56977812 </v>
   <v>       0.71881577       0.19532222       0.51126977 </v>
   <v>       0.71940799       0.52052289       0.50993986 </v>
   <v>       0.75435431       0.52775614       0.56986215 </v>
   <v>       0.83552152       0.52010674       0.51133427 </v>
   <v>       0.98606853       0.49101584       0.51002088 </v>
   <v>       0.95061762       0.41941181       0.50993991 </v>
   <v>       0.88030973       0.38526950       0.50997068 </v>
   <v>       0.84688224       0.42147864       0.51060442 </v>
   <v>       0.88034333       0.49111273       0.51078726 </v>
   <v>       0.95064637       0.52719992       0.51025908 </v>
   <v>       0.98758431       0.38497087       0.50992920 </v>
   <v>       0.98762363       0.59859682       0.51024963 </v>
   <v>       0.75473555       0.22197900       0.45160691 </v>
   <v>       0.80907620       0.52975006       0.45171676 </v>
   <v>       0.29430175       0.79791314       0.57006576 </v>
   <v>       0.23290570       0.49296743       0.57006378 </v>
   <v>       0.23214337       0.73663041       0.45061823 </v>
   <v>       0.29445383       0.49264571       0.45061359 </v>
   <v>       0.53854194       0.73703203       0.57001863 </v>
   <v>       0.50555246       0.28217388       0.57017390 </v>
   <v>       0.53840594       0.79856295       0.45048496 </v>
   <v>       0.50461824       0.21992540       0.45078618 </v>
   <v>       0.74846014       0.22031677       0.57035271 </v>
   <v>       0.81044167       0.52453095       0.57045880 </v>
   <v>       0.81101005       0.28118683       0.45094991 </v>
   <v>       0.74995282       0.52699440       0.45100796 </v>
  </varray>
 </structure>
 <calculation>
  <scstep>
   <time name="dav">  429.86  434.40</time>
   <time name="total">  430.01  434.55</time>
   <energy>
    <i name="alphaZ">     73.73284816 </i>
    <i name="ewald">  47898.09284684 </i>
    <i name="hartreedc"> -59502.07932873 </i>
    <i name="XCdc">   1311.34511363 </i>
    <i name="pawpsdc">  36109.25479665 </i>
    <i name="pawaedc"> -36175.73420561 </i>
    <i name="eentropy">     -0.00000000 </i>
    <i name="bandstr">  -4710.75081917 </i>
    <i name="atom">  14143.69745030 </i>
    <i name="e_fr_energy">   -852.44129793 </i>
    <i name="e_wo_entrp">   -852.44129793 </i>
    <i name="e_0_energy">   -852.44129793 </i>
   </energy>
  </scstep>
  <scstep>
   <time name="dav">  478.98  484.01</time>
   <time name="total">  478.98  484.01</time>
   <energy>
    <i name="e_fr_energy">   -853.18769687 </i>
    <i name="e_wo_entrp">   -853.18769687 </i>
    <i name="e_0_energy">   -853.18769687 </i>
   </energy>
  </scstep>
  <scstep>
   <time name="dav">  530.42  536.06</time>
   <time name="total">  530.43  536.07</time>
   <energy>
    <i name="e_fr_energy">   -853.20669210 </i>
    <i name="e_wo_entrp">   -853.20669210 </i>
    <i name="e_0_energy">   -853.20669210 </i>
   </energy>
  </scstep>
  <scstep>
   <time name="dav">  475.87  480.88</time>
   <time name="total">  475.87  480.88</time>
   <energy>
    <i name="e_fr_energy">   -853.20705920 </i>
    <i name="e_wo_entrp">   -853.20705920 </i>
    <i name="e_0_energy">   -853.20705920 </i>
   </energy>
  </scstep>
  <scstep>
   <time name="dav">  460.70  465.49</time>
   <time name="total">  460.70  465.50</time>
   <energy>
    <i name="e_fr_energy">   -853.20707840 </i>
    <i name="e_wo_entrp">   -853.20707840 </i>
    <i name="e_0_energy">   -853.20707840 </i>
   </energy>
  </scstep>
  <scstep>
   <time name="dav">  368.32  372.25</time>
   <time name="total">  368.33  372.25</time>
   <energy>
    <i name="alphaZ">     73.73284816 </i>
    <i name="ewald">  47898.09284684 </i>
    <i name="hartreedc"> -59502.07932873 </i>
    <i name="XCdc">   1311.34511363 </i>
    <i name="pawpsdc">  36109.25479665 </i>
    <i name="pawaedc"> -36175.73420561 </i>
    <i name="eentropy">     -0.00000000 </i>
    <i name="bandstr">  -4711.51660005 </i>
    <i name="atom">  14143.69745030 </i>
    <i name="e_fr_energy">   -853.20707882 </i>
    <i name="e_wo_entrp">   -853.20707882 </i>
    <i name="e_0_energy">   -853.20707882 </i>
   </energy>
  </scstep>
  <structure>
   <crystal>
    <varray name="basis" >
     <v>      23.14732842      -0.00228767       0.00000000 </v>
     <v>     -11.57559546      20.04837406       0.00000000 </v>
     <v>       0.00000006      -0.00059550      20.00000000 </v>
    </varray>
    <i name="volume">   9280.79635077 </i>
    <varray name="rec_basis" >
     <v>       0.04320400       0.02494526       0.00000074 </v>
     <v>       0.00000493       0.04988220       0.00000149 </v>
     <v>       0.00000000       0.00000000       0.05000000 </v>
    </varray>
   </crystal>
   <varray name="positions" >
    <v>       0.21084322       0.72206374       0.61763122 </v>
    <v>       0.25091670       0.62347894       0.51028106 </v>
    <v>       0.08322131       0.39211160       0.51083323 </v>
    <v>       0.08328365       0.68708236       0.50927690 </v>
    <v>       0.21032562       0.48359133       0.40317489 </v>
    <v>       0.40683133       0.77988397       0.51030763 </v>
    <v>       0.40464744       0.07060715       0.50948024 </v>
    <v>       0.34311929       0.94744479       0.51080371 </v>
    <v>       0.40742612       0.62408717       0.51062668 </v>
    <v>       0.40524956       0.33118209       0.51084638 </v>
    <v>       0.34370087       0.39277817       0.50945057 </v>
    <v>       0.54655340       0.82071424       0.61740393 </v>
    <v>       0.30853601       0.48493002       0.61754905 </v>
    <v>       0.49714135       0.19838501       0.61774354 </v>
    <v>       0.30725853       0.82074598       0.40321445 </v>
    <v>       0.54712625       0.72325635       0.40314232 </v>
    <v>       0.49614708       0.29528879       0.40329808 </v>
    <v>       0.63604017       0.23831924       0.51068922 </v>
    <v>       0.63809777       0.94754543       0.50948919 </v>
    <v>       0.63656229       0.39478917       0.51064733 </v>
    <v>       0.63876898       0.68771211       0.51095456 </v>
    <v>       0.69968462       0.07072027       0.51093593 </v>
    <v>       0.70029615       0.62607112       0.50949584 </v>
    <v>       0.83210283       0.29583033       0.61796499 </v>
    <v>       0.73477722       0.53235768       0.61808248 </v>
    <v>       0.79241122       0.39423850       0.51092094 </v>
    <v>       0.96004440       0.33054195       0.50960510 </v>
    <v>       0.96009353       0.62548444       0.51076662 </v>
    <v>       0.73582366       0.19710846       0.40354082 </v>
    <v>       0.83406081       0.53588038       0.40370051 </v>
    <v>       0.20787293       0.70630144       0.50958597 </v>
    <v>       0.23516347       0.74156051       0.56944682 </v>
    <v>       0.28918622       0.49006311       0.56941739 </v>
    <v>       0.20804798       0.49787761       0.51100033 </v>
    <v>       0.05726355       0.52661646       0.50997881 </v>
    <v>       0.09270334       0.49044498       0.51025975 </v>
    <v>       0.16300891       0.52661882       0.51059401 </v>
    <v>       0.19644212       0.59626029       0.51018475 </v>
    <v>       0.16301252       0.63246333       0.50966000 </v>
    <v>       0.09270609       0.59823076       0.50976429 </v>
    <v>       0.05571582       0.41903090       0.51034722 </v>
    <v>       0.05574024       0.63265977       0.50973317 </v>
    <v>       0.28828866       0.79593312       0.45128673 </v>
    <v>       0.23508861       0.48931536       0.45126026 </v>
    <v>       0.50361540       0.97353252       0.51008365 </v>
    <v>       0.43200290       0.93806475       0.51030472 </v>
    <v>       0.39784334       0.86776855       0.51060628 </v>
    <v>       0.43406767       0.83435066       0.51021056 </v>
    <v>       0.50371574       0.86783007       0.50969495 </v>
    <v>       0.53980008       0.93811872       0.50988713 </v>
    <v>       0.39755000       0.97500964       0.51034756 </v>
    <v>       0.53919477       0.04471752       0.51010941 </v>
    <v>       0.50300388       0.08014337       0.50996570 </v>
    <v>       0.53912652       0.15045261       0.50993070 </v>
    <v>       0.43159090       0.04312890       0.50990292 </v>
    <v>       0.50421823       0.52727204       0.51016841 </v>
    <v>       0.54041912       0.59889649       0.51044186 </v>
    <v>       0.50433773       0.63312303       0.51080080 </v>
    <v>       0.43467662       0.59687836       0.51044753 </v>
    <v>       0.39843211       0.52723454       0.50984918 </v>
    <v>       0.43259561       0.49109900       0.50995638 </v>
    <v>       0.39813954       0.41969138       0.50988835 </v>
    <v>       0.53978733       0.49164703       0.51013711 </v>
    <v>       0.53968929       0.38582919       0.51072165 </v>
    <v>       0.50359205       0.42003412       0.51035550 </v>
    <v>       0.43217764       0.38561282       0.51036616 </v>
    <v>       0.32402825       0.82281374       0.51099520 </v>
    <v>       0.53277661       0.82306984       0.50948027 </v>
    <v>       0.54129003       0.79612257       0.56930634 </v>
    <v>       0.53319434       0.70695831       0.51102888 </v>
    <v>       0.32460443       0.49832781       0.50962275 </v>
    <v>       0.51032608       0.19547306       0.50978639 </v>
    <v>       0.50235068       0.22285194       0.56958284 </v>
    <v>       0.51069966       0.31200103       0.51109944 </v>
    <v>       0.54160508       0.74243655       0.45122687 </v>
    <v>       0.50178643       0.27623179       0.45140508 </v>
    <v>       0.61120589       0.97508099       0.50990355 </v>
    <v>       0.60878025       0.18385852       0.51049193 </v>
    <v>       0.64498992       0.15043260       0.51078909 </v>
    <v>       0.61081183       0.08014446       0.51036760 </v>
    <v>       0.64525608       0.04319237       0.51040937 </v>
    <v>       0.61182954       0.63328666       0.51045240 </v>
    <v>       0.61140582       0.52779989       0.50996729 </v>
    <v>       0.64558500       0.49167863       0.50991204 </v>
    <v>       0.60934668       0.42203421       0.51045113 </v>
    <v>       0.64586123       0.59920126       0.50994643 </v>
    <v>       0.83530286       0.31149235       0.50991049 </v>
    <v>       0.80778371       0.27638777       0.56977812 </v>
    <v>       0.71881577       0.19532222       0.51126977 </v>
    <v>       0.71940799       0.52052289       0.50993986 </v>
    <v>       0.75435431       0.52775614       0.56986215 </v>
    <v>       0.83552152       0.52010674       0.51133427 </v>
    <v>       0.98606853       0.49101584       0.51002088 </v>
    <v>       0.95061762       0.41941181       0.50993991 </v>
    <v>       0.88030973       0.38526950       0.50997068 </v>
    <v>       0.84688224       0.42147864       0.51060442 </v>
    <v>       0.88034333       0.49111273       0.51078726 </v>
    <v>       0.95064637       0.52719992       0.51025908 </v>
    <v>       0.98758431       0.38497087       0.50992920 </v>
    <v>       0.98762363       0.59859682       0.51024963 </v>
    <v>       0.75473555       0.22197900       0.45160691 </v>
    <v>       0.80907620       0.52975006       0.45171676 </v>
    <v>       0.29430175       0.79791314       0.57006576 </v>
    <v>       0.23290570       0.49296743       0.57006378 </v>
    <v>       0.23214337       0.73663041       0.45061823 </v>
    <v>       0.29445383       0.49264571       0.45061359 </v>
    <v>       0.53854194       0.73703203       0.57001863 </v>
    <v>       0.50555246       0.28217388       0.57017390 </v>
    <v>       0.53840594       0.79856295       0.45048496 </v>
    <v>       0.50461824       0.21992540       0.45078618 </v>
    <v>       0.74846014       0.22031677       0.57035271 </v>
    <v>       0.81044167       0.52453095       0.57045880 </v>
    <v>       0.81101005       0.28118683       0.45094991 </v>
    <v>       0.74995282       0.52699440       0.45100796 </v>
   </varray>
  </structure>
  <varray name="forces" >
   <v>      -0.00244559       0.00241656      -0.00060322 </v>
   <v>       0.00265055       0.00237458       0.00191187 </v>
   <v>       0.00051691      -0.00041473       0.00307867 </v>
   <v>      -0.00154148      -0.00051729      -0.00215081 </v>
   <v>       0.00279986      -0.00184395      -0.00289413 </v>
   <v>       0.00239478      -0.00246238      -0.00046231 </v>
   <v>      -0.00000908      -0.00020351      -0.00172213 </v>
   <v>      -0.00350942       0.00020565       0.00122215 </v>
   <v>      -0.00419802       0.00380265      -0.00110558 </v>
   <v>      -0.00018566       0.00032318       0.00106420 </v>
   <v>       0.00273478       0.00066286      -0.00258964 </v>
   <v>       0.00276174       0.00172928      -0.00021072 </v>
   <v>       0.00035286      -0.00193456       0.00511681 </v>
   <v>      -0.00115671       0.00003479       0.00256403 </v>
   <v>      -0.00176039      -0.00123600      -0.00187943 </v>
   <v>       0.00188428       0.00298117      -0.00057908 </v>
   <v>      -0.00046720      -0.00232958      -0.00160687 </v>
   <v>      -0.00165585       0.00401058       0.00065529 </v>
   <v>      -0.00156085       0.00130391      -0.00168484 </v>
   <v>       0.00363072      -0.00359709       0.00043805 </v>
   <v>       0.00066238      -0.00079432       0.00061777 </v>
   <v>       0.00200425      -0.00043167       0.00192616 </v>
   <v>      -0.00163817       0.00023694      -0.00170514 </v>
   <v>       0.00207678      -0.00116891       0.00221455 </v>
   <v>      -0.00160064      -0.00044842      -0.00158178 </v>
   <v>      -0.00610179      -0.00187084       0.00038490 </v>
   <v>       0.00048785      -0.00140638      -0.00283921 </v>
   <v>      -0.00145472       0.00122502       0.00085133 </v>
   <v>       0.00247180       0.00042707       0.00154360 </v>
   <v>       0.00160270       0.00607494      -0.00448588 </v>
   <v>      -0.00050953       0.00118321       0.00443621 </v>
   <v>      -0.00105589       0.00326473      -0.00015081 </v>
   <v>      -0.00204299      -0.00065608       0.00433566 </v>
   <v>       0.00488745       0.00008046      -0.00069712 </v>
   <v>       0.00413366       0.00034641      -0.00022697 </v>
   <v>      -0.00520886      -0.00311422      -0.00152859 </v>
   <v>       0.00502373      -0.00488012       0.00160778 </v>
   <v>       0.00119587       0.00500955       0.00137855 </v>
   <v>       0.00301662       0.00643431      -0.00101285 </v>
   <v>      -0.00767109       0.00022699       0.00129621 </v>
   <v>       0.00166346       0.00643864      -0.00050847 </v>
   <v>       0.00654231       0.00139646      -0.00116070 </v>
   <v>      -0.00173313      -0.00218914       0.00497823 </v>
   <v>      -0.00609549      -0.00404905       0.00558355 </v>
   <v>      -0.00285009      -0.00204272      -0.00127896 </v>
   <v>       0.00029141       0.00476394      -0.00242142 </v>
   <v>      -0.00699836      -0.00142928       0.00061238 </v>
   <v>       0.00116787      -0.00661823      -0.00033022 </v>
   <v>       0.00463042      -0.00826670      -0.00176541 </v>
   <v>       0.00084098       0.00759690       0.00132382 </v>
   <v>       0.00402195      -0.00488921      -0.00094825 </v>
   <v>      -0.00262629       0.00026644      -0.00005940 </v>
   <v>      -0.00125782      -0.00550805       0.00046572 </v>
   <v>      -0.00350866       0.00461195      -0.00045526 </v>
   <v>       0.00289374       0.00438212      -0.00011548 </v>
   <v>      -0.00164713      -0.00025539      -0.00138337 </v>
   <v>       0.00517770       0.00011144      -0.00143944 </v>
   <v>       0.00042280      -0.00143823       0.00146549 </v>
   <v>      -0.00325708       0.00129122      -0.00093443 </v>
   <v>      -0.00162950       0.00184792      -0.00050190 </v>
   <v>       0.00366831      -0.00370302      -0.00004898 </v>
   <v>      -0.00266132       0.00036389      -0.00033800 </v>
   <v>       0.00204149      -0.00021688      -0.00057236 </v>
   <v>      -0.00198463      -0.00251243       0.00092182 </v>
   <v>      -0.00434374      -0.00109012      -0.00134473 </v>
   <v>       0.00386382       0.00147305      -0.00089490 </v>
   <v>      -0.00295794      -0.00593887      -0.00199788 </v>
   <v>       0.00323811      -0.00535254       0.00305775 </v>
   <v>       0.00340822      -0.00044911      -0.00422298 </v>
   <v>       0.00052411       0.00620045       0.00223459 </v>
   <v>      -0.00863832      -0.00396971      -0.00442608 </v>
   <v>      -0.00241106       0.00249358       0.00037758 </v>
   <v>      -0.00197194      -0.00116650       0.00046770 </v>
   <v>      -0.00107757      -0.00256339      -0.00280007 </v>
   <v>      -0.00017456       0.00055440      -0.00468788 </v>
   <v>      -0.00254764       0.00074122      -0.00117466 </v>
   <v>       0.00010530      -0.00480783      -0.00148934 </v>
   <v>      -0.00477941       0.00372353       0.00216328 </v>
   <v>       0.00561766       0.00542939       0.00152620 </v>
   <v>      -0.00119849      -0.00480325       0.00031969 </v>
   <v>      -0.00183077       0.00335193      -0.00054391 </v>
   <v>      -0.00356193      -0.00040150      -0.00182166 </v>
   <v>      -0.00313483       0.00483770      -0.00068340 </v>
   <v>       0.00493934       0.00107319      -0.00373561 </v>
   <v>       0.00144286      -0.00824650      -0.00022669 </v>
   <v>       0.00181154      -0.00157987      -0.00049684 </v>
   <v>       0.00076077      -0.00826910       0.00142791 </v>
   <v>       0.00202059       0.00262830      -0.00086861 </v>
   <v>       0.00365982       0.00470595      -0.00781382 </v>
   <v>       0.01026318       0.00405420      -0.00039870 </v>
   <v>      -0.00938744      -0.00315604      -0.00012375 </v>
   <v>      -0.00545970       0.00282032      -0.00290988 </v>
   <v>      -0.00112673       0.00274799      -0.00164342 </v>
   <v>       0.00621702      -0.00214011      -0.00021811 </v>
   <v>      -0.00149348      -0.00465658      -0.00098056 </v>
   <v>      -0.00090533       0.00024047      -0.00110776 </v>
   <v>      -0.00559651       0.00321942       0.00107076 </v>
   <v>       0.00126166       0.00231821       0.00033729 </v>
   <v>      -0.00637170       0.00112884      -0.00074946 </v>
   <v>      -0.00305509      -0.00349531      -0.00136978 </v>
   <v>       0.00279497       0.00021274       0.00107083 </v>
   <v>       0.00076078       0.00332714       0.00884333 </v>
   <v>       0.00181244      -0.00045993      -0.00094223 </v>
   <v>       0.00112616       0.00233794      -0.00035680 </v>
   <v>      -0.00001271      -0.00277989       0.00369724 </v>
   <v>       0.00819822       0.00105988       0.00169699 </v>
   <v>      -0.00176815       0.00333127      -0.00000422 </v>
   <v>       0.00150970      -0.00321683       0.00124400 </v>
   <v>       0.00426644       0.00415520       0.00170196 </v>
   <v>       0.00268250      -0.00002579       0.00176782 </v>
   <v>       0.00129330      -0.00206691       0.00743415 </v>
   <v>       0.00222329      -0.00058182       0.00045948 </v>
   <v>       0.00424829      -0.00315760       0.00352288 </v>
   <v>      -0.00487361       0.00121140      -0.00040333 </v>
  </varray>
  <varray name="stress" >
   <v>      -0.00369425       0.00032581      -0.00306104 </v>
   <v>       0.00032581      -0.00152881      -0.00602031 </v>
   <v>      -0.00306104      -0.00602031      -0.20046949 </v>
  </varray>
  <energy>
   <i name="e_fr_energy">   -856.01870505 </i>
   <i name="e_wo_entrp">   -856.01870505 </i>
   <i name="e_0_energy">     -0.00000000 </i>
  </energy>
  <time name="totalsc"> 3231.97 3270.78</time>
  <eigenvalues>
   <array>
    <dimension dim="1">band</dimension>
    <dimension dim="2">kpoint</dimension>
    <dimension dim="3">spin</dimension>
    <field>eigene</field>
    <field>occ</field>
    <set>
     <set comment="spin 1">
      <set comment="kpoint 1">
       <r>  -24.2531    1.0000 </r>
       <r>  -24.2515    1.0000 </r>
       <r>  -24.2400    1.0000 </r>
       <r>  -24.2394    1.0000 </r>
       <r>  -24.2389    1.0000 </r>
       <r>  -24.2378    1.0000 </r>
       <r>  -22.4146    1.0000 </r>
       <r>  -22.4138    1.0000 </r>
       <r>  -22.3624    1.0000 </r>
       <r>  -22.3616    1.0000 </r>
       <r>  -22.3131    1.0000 </r>
       <r>  -22.3100    1.0000 </r>
       <r>  -22.0133    1.0000 </r>
       <r>  -21.9473    1.0000 </r>
       <r>  -21.9469    1.0000 </r>
       <r>  -21.1703    1.0000 </r>
       <r>  -21.1695    1.0000 </r>
       <r>  -21.1042    1.0000 </r>
       <r>  -20.5303    1.0000 </r>
       <r>  -20.4560    1.0000 </r>
       <r>  -20.4551    1.0000 </r>
       <r>  -20.1508    1.0000 </r>
       <r>  -20.1494    1.0000 </r>
       <r>  -19.9312    1.0000 </r>
       <r>  -19.8384    1.0000 </r>
       <r>  -19.4397    1.0000 </r>
       <r>  -19.3620    1.0000 </r>
       <r>  -19.3617    1.0000 </r>
       <r>  -19.1629    1.0000 </r>
       <r>  -19.1624    1.0000 </r>
       <r>  -18.5016    1.0000 </r>
       <r>  -18.5009    1.0000 </r>
       <r>  -18.2732    1.0000 </r>
       <r>  -18.1366    1.0000 </r>
       <r>  -18.1363    1.0000 </r>
       <r>  -18.1064    1.0000 </r>
       <r>  -18.0731    1.0000 </r>
       <r>  -17.9959    1.0000 </r>
       <r>  -17.9951    1.0000 </r>
       <r>  -17.4986    1.0000 </r>
       <r>  -17.4978    1.0000 </r>
       <r>  -16.8344    1.0000 </r>
       <r>  -16.4917    1.0000 </r>
       <r>  -16.4909    1.0000 </r>
       <r>  -16.1890    1.0000 </r>
       <r>  -15.9288    1.0000 </r>
       <r>  -15.9221    1.0000 </r>
       <r>  -15.9214    1.0000 </r>
       <r>  -15.9187    1.0000 </r>
       <r>  -15.9179    1.0000 </r>
       <r>  -15.9105    1.0000 </r>
       <r>  -15.8537    1.0000 </r>
       <r>  -15.7536    1.0000 </r>
       <r>  -15.7530    1.0000 </r>
       <r>  -15.3869    1.0000 </r>
       <r>  -15.3865    1.0000 </r>
       <r>  -15.3841    1.0000 </r>
       <r>  -15.2193    1.0000 </r>
       <r>  -14.9847    1.0000 </r>
       <r>  -14.9842    1.0000 </r>
       <r>  -14.6924    1.0000 </r>
       <r>  -14.6395    1.0000 </r>
       <r>  -14.4924    1.0000 </r>
       <r>  -14.4919    1.0000 </r>
       <r>  -14.2122    1.0000 </r>
       <r>  -14.2119    1.0000 </r>
       <r>  -13.2197    1.0000 </r>
       <r>  -13.1939    1.0000 </r>
       <r>  -13.1935    1.0000 </r>
       <r>  -12.9026    1.0000 </r>
       <r>  -12.8566    1.0000 </r>
       <r>  -12.8562    1.0000 </r>
       <r>  -12.6303    1.0000 </r>
       <r>  -12.6287    1.0000 </r>
       <r>  -12.5902    1.0000 </r>
       <r>  -12.5766    1.0000 </r>
       <r>  -12.5535    1.0000 </r>
       <r>  -12.5525    1.0000 </r>
       <r>  -12.5519    1.0000 </r>
       <r>  -12.5221    1.0000 </r>
       <r>  -12.5216    1.0000 </r>
       <r>  -12.4977    1.0000 </r>
       <r>  -12.4972    1.0000 </r>
       <r>  -12.4419    1.0000 </r>
       <r>  -12.2731    1.0000 </r>
       <r>  -12.0498    1.0000 </r>
       <r>  -12.0497    1.0000 </r>
       <r>  -12.0281    1.0000 </r>
       <r>  -11.9239    1.0000 </r>
       <r>  -11.9235    1.0000 </r>
       <r>  -11.4406    1.0000 </r>
       <r>  -11.4403    1.0000 </r>
       <r>  -11.2708    1.0000 </r>
       <r>  -11.2705    1.0000 </r>
       <r>  -11.0234    1.0000 </r>
       <r>  -10.8799    1.0000 </r>
       <r>  -10.8793    1.0000 </r>
       <r>  -10.8548    1.0000 </r>
       <r>  -10.7854    1.0000 </r>
       <r>  -10.7850    1.0000 </r>
       <r>  -10.7795    1.0000 </r>
       <r>  -10.7659    1.0000 </r>
       <r>  -10.5350    1.0000 </r>
       <r>  -10.5163    1.0000 </r>
       <r>  -10.5158    1.0000 </r>
       <r>  -10.3846    1.0000 </r>
       <r>  -10.3842    1.0000 </r>
       <r>  -10.3819    1.0000 </r>
       <r>  -10.2956    1.0000 </r>
       <r>  -10.2748    1.0000 </r>
       <r>  -10.2745    1.0000 </r>
       <r>  -10.2565    1.0000 </r>
       <r>   -9.9686    1.0000 </r>
       <r>   -9.9678    1.0000 </r>
       <r>   -9.9325    1.0000 </r>
       <r>   -9.9318    1.0000 </r>
       <r>   -9.8889    1.0000 </r>
       <r>   -9.7440    1.0000 </r>
       <r>   -9.6792    1.0000 </r>
       <r>   -9.6790    1.0000 </r>
       <r>   -9.5770    1.0000 </r>
       <r>   -9.5764    1.0000 </r>
       <r>   -9.4426    1.0000 </r>
       <r>   -9.4254    1.0000 </r>
       <r>   -9.4249    1.0000 </r>
       <r>   -9.3318    1.0000 </r>
       <r>   -9.1239    1.0000 </r>
       <r>   -9.1233    1.0000 </r>
       <r>   -9.0850    1.0000 </r>
       <r>   -9.0079    1.0000 </r>
       <r>   -8.9002    1.0000 </r>
       <r>   -8.8236    1.0000 </r>
       <r>   -8.8234    1.0000 </r>
       <r>   -8.7919    1.0000 </r>
       <r>   -8.7907    1.0000 </r>
       <r>   -8.6827    1.0000 </r>
       <r>   -8.6820    1.0000 </r>
       <r>   -8.6812    1.0000 </r>
       <r>   -8.5973    1.0000 </r>
       <r>   -8.5046    1.0000 </r>
       <r>   -8.5036    1.0000 </r>
       <r>   -8.2471    1.0000 </r>
       <r>   -8.2295    1.0000 </r>
       <r>   -8.2288    1.0000 </r>
       <r>   -7.9366    1.0000 </r>
       <r>   -7.9362    1.0000 </r>
       <r>   -7.8116    1.0000 </r>
       <r>   -7.7578    1.0000 </r>
       <r>   -7.7571    1.0000 </r>
       <r>   -7.7494    1.0000 </r>
       <r>   -7.7199    1.0000 </r>
       <r>   -7.6413    1.0000 </r>
       <r>   -7.6410    1.0000 </r>
       <r>   -7.5294    1.0000 </r>
       <r>   -7.4897    1.0000 </r>
       <r>   -7.4896    1.0000 </r>
       <r>   -7.2489    1.0000 </r>
       <r>   -7.2467    1.0000 </r>
       <r>   -7.1923    1.0000 </r>
       <r>   -6.9284    1.0000 </r>
       <r>   -6.9270    1.0000 </r>
       <r>   -6.8356    1.0000 </r>
       <r>   -6.8348    1.0000 </r>
       <r>   -6.7764    1.0000 </r>
       <r>   -6.7246    1.0000 </r>
       <r>   -6.6134    1.0000 </r>
       <r>   -6.4599    1.0000 </r>
       <r>   -6.4589    1.0000 </r>
       <r>   -6.2222    1.0000 </r>
       <r>   -6.2213    1.0000 </r>
       <r>   -6.1777    1.0000 </r>
       <r>   -6.1767    1.0000 </r>
       <r>   -6.1233    1.0000 </r>
       <r>   -6.1200    1.0000 </r>
       <r>   -6.1192    1.0000 </r>
       <r>   -6.1091    1.0000 </r>
       <r>   -6.0106    1.0000 </r>
       <r>   -5.7142    1.0000 </r>
       <r>   -5.7126    1.0000 </r>
       <r>   -5.5760    1.0000 </r>
       <r>   -5.5652    1.0000 </r>
       <r>   -5.4453    1.0000 </r>
       <r>   -5.3466    1.0000 </r>
       <r>   -5.3464    1.0000 </r>
       <r>   -5.3167    1.0000 </r>
       <r>   -5.3157    1.0000 </r>
       <r>   -4.8276    1.0000 </r>
       <r>   -4.7518    1.0000 </r>
       <r>   -4.7512    1.0000 </r>
       <r>   -2.6593    0.0000 </r>
       <r>   -2.3688    0.0000 </r>
       <r>   -2.3680    0.0000 </r>
       <r>   -2.0833    0.0000 </r>
       <r>   -1.9768    0.0000 </r>
       <r>   -1.9758    0.0000 </r>
       <r>   -1.8895    0.0000 </r>
       <r>   -1.8874    0.0000 </r>
       <r>   -1.8577    0.0000 </r>
       <r>   -1.6220    0.0000 </r>
       <r>   -1.5243    0.0000 </r>
       <r>   -1.5141    0.0000 </r>
       <r>   -1.5135    0.0000 </r>
       <r>   -1.4401    0.0000 </r>
       <r>   -1.4397    0.0000 </r>
       <r>   -1.4029    0.0000 </r>
       <r>   -1.3087    0.0000 </r>
       <r>   -1.3062    0.0000 </r>
       <r>   -1.0428    0.0000 </r>
       <r>   -1.0423    0.0000 </r>
       <r>   -1.0286    0.0000 </r>
       <r>   -0.4780    0.0000 </r>
       <r>   -0.4376    0.0000 </r>
       <r>   -0.4368    0.0000 </r>
       <r>   -0.1201    0.0000 </r>
       <r>    0.1184    0.0000 </r>
       <r>    0.1701    0.0000 </r>
       <r>    0.2118    0.0000 </r>
       <r>    0.2130    0.0000 </r>
       <r>    0.2707    0.0000 </r>
       <r>    0.2710    0.0000 </r>
       <r>    0.3019    0.0000 </r>
       <r>    0.3027    0.0000 </r>
       <r>    0.3759    0.0000 </r>
       <r>    0.5002    0.0000 </r>
       <r>    0.5161    0.0000 </r>
       <r>    0.7445    0.0000 </r>
       <r>    0.7451    0.0000 </r>
       <r>    0.7543    0.0000 </r>
       <r>    0.7935    0.0000 </r>
       <r>    0.8407    0.0000 </r>
       <r>    0.8411    0.0000 </r>
       <r>    0.8628    0.0000 </r>
       <r>    0.8643    0.0000 </r>
       <r>    0.9422    0.0000 </r>
       <r>    0.9606    0.0000 </r>
       <r>    1.0589    0.0000 </r>
       <r>    1.0603    0.0000 </r>
       <r>    1.1310    0.0000 </r>
       <r>    1.1860    0.0000 </r>
       <r>    1.1862    0.0000 </r>
       <r>    1.1894    0.0000 </r>
       <r>    1.2496    0.0000 </r>
       <r>    1.2520    0.0000 </r>
       <r>    1.2536    0.0000 </r>
       <r>    1.2937    0.0000 </r>
       <r>    1.2948    0.0000 </r>
       <r>    1.3913    0.0000 </r>
       <r>    1.3922    0.0000 </r>
       <r>    1.4172    0.0000 </r>
       <r>    1.4195    0.0000 </r>
       <r>    1.4458    0.0000 </r>
       <r>    1.4801    0.0000 </r>
       <r>    1.5192    0.0000 </r>
       <r>    1.5408    0.0000 </r>
       <r>    1.5469    0.0000 </r>
       <r>    1.5479    0.0000 </r>
      </set>
      <set comment="kpoint 2">
       <r>  -24.2531    1.0000 </r>
       <r>  -24.2515    1.0000 </r>
       <r>  -24.2400    1.0000 </r>
       <r>  -24.2394    1.0000 </r>
       <r>  -24.2389    1.0000 </r>
       <r>  -24.2378    1.0000 </r>
       <r>  -22.4146    1.0000 </r>
       <r>  -22.4138    1.0000 </r>
       <r>  -22.3625    1.0000 </r>
       <r>  -22.3616    1.0000 </r>
       <r>  -22.3131    1.0000 </r>
       <r>  -22.3100    1.0000 </r>
       <r>  -22.0132    1.0000 </r>
       <r>  -21.9474    1.0000 </r>
       <r>  -21.9470    1.0000 </r>
       <r>  -21.1702    1.0000 </r>
       <r>  -21.1695    1.0000 </r>
       <r>  -21.1044    1.0000 </r>
       <r>  -20.5302    1.0000 </r>
       <r>  -20.4561    1.0000 </r>
       <r>  -20.4552    1.0000 </r>
       <r>  -20.1503    1.0000 </r>
       <r>  -20.1492    1.0000 </r>
       <r>  -19.9308    1.0000 </r>
       <r>  -19.8389    1.0000 </r>
       <r>  -19.4444    1.0000 </r>
       <r>  -19.3627    1.0000 </r>
       <r>  -19.3581    1.0000 </r>
       <r>  -19.1615    1.0000 </r>
       <r>  -19.1612    1.0000 </r>
       <r>  -18.5022    1.0000 </r>
       <r>  -18.5012    1.0000 </r>
       <r>  -18.2732    1.0000 </r>
       <r>  -18.1450    1.0000 </r>
       <r>  -18.1374    1.0000 </r>
       <r>  -18.1076    1.0000 </r>
       <r>  -18.0660    1.0000 </r>
       <r>  -17.9944    1.0000 </r>
       <r>  -17.9925    1.0000 </r>
       <r>  -17.4984    1.0000 </r>
       <r>  -17.4980    1.0000 </r>
       <r>  -16.8371    1.0000 </r>
       <r>  -16.4912    1.0000 </r>
       <r>  -16.4891    1.0000 </r>
       <r>  -16.1885    1.0000 </r>
       <r>  -15.9290    1.0000 </r>
       <r>  -15.9221    1.0000 </r>
       <r>  -15.9214    1.0000 </r>
       <r>  -15.9187    1.0000 </r>
       <r>  -15.9179    1.0000 </r>
       <r>  -15.9105    1.0000 </r>
       <r>  -15.8545    1.0000 </r>
       <r>  -15.7545    1.0000 </r>
       <r>  -15.7525    1.0000 </r>
       <r>  -15.3869    1.0000 </r>
       <r>  -15.3865    1.0000 </r>
       <r>  -15.3841    1.0000 </r>
       <r>  -15.2185    1.0000 </r>
       <r>  -14.9847    1.0000 </r>
       <r>  -14.9839    1.0000 </r>
       <r>  -14.6935    1.0000 </r>
       <r>  -14.6403    1.0000 </r>
       <r>  -14.4917    1.0000 </r>
       <r>  -14.4908    1.0000 </r>
       <r>  -14.2124    1.0000 </r>
       <r>  -14.2122    1.0000 </r>
       <r>  -13.2197    1.0000 </r>
       <r>  -13.1939    1.0000 </r>
       <r>  -13.1935    1.0000 </r>
       <r>  -12.9025    1.0000 </r>
       <r>  -12.8566    1.0000 </r>
       <r>  -12.8563    1.0000 </r>
       <r>  -12.6303    1.0000 </r>
       <r>  -12.6287    1.0000 </r>
       <r>  -12.5902    1.0000 </r>
       <r>  -12.5766    1.0000 </r>
       <r>  -12.5539    1.0000 </r>
       <r>  -12.5526    1.0000 </r>
       <r>  -12.5514    1.0000 </r>
       <r>  -12.5221    1.0000 </r>
       <r>  -12.5216    1.0000 </r>
       <r>  -12.4978    1.0000 </r>
       <r>  -12.4973    1.0000 </r>
       <r>  -12.4421    1.0000 </r>
       <r>  -12.2727    1.0000 </r>
       <r>  -12.0504    1.0000 </r>
       <r>  -12.0494    1.0000 </r>
       <r>  -12.0276    1.0000 </r>
       <r>  -11.9239    1.0000 </r>
       <r>  -11.9236    1.0000 </r>
       <r>  -11.4407    1.0000 </r>
       <r>  -11.4403    1.0000 </r>
       <r>  -11.2711    1.0000 </r>
       <r>  -11.2705    1.0000 </r>
       <r>  -11.0231    1.0000 </r>
       <r>  -10.8799    1.0000 </r>
       <r>  -10.8792    1.0000 </r>
       <r>  -10.8548    1.0000 </r>
       <r>  -10.7854    1.0000 </r>
       <r>  -10.7850    1.0000 </r>
       <r>  -10.7796    1.0000 </r>
       <r>  -10.7665    1.0000 </r>
       <r>  -10.5349    1.0000 </r>
       <r>  -10.5162    1.0000 </r>
       <r>  -10.5154    1.0000 </r>
       <r>  -10.3847    1.0000 </r>
       <r>  -10.3844    1.0000 </r>
       <r>  -10.3817    1.0000 </r>
       <r>  -10.2952    1.0000 </r>
       <r>  -10.2752    1.0000 </r>
       <r>  -10.2742    1.0000 </r>
       <r>  -10.2558    1.0000 </r>
       <r>   -9.9691    1.0000 </r>
       <r>   -9.9683    1.0000 </r>
       <r>   -9.9325    1.0000 </r>
       <r>   -9.9319    1.0000 </r>
       <r>   -9.8890    1.0000 </r>
       <r>   -9.7435    1.0000 </r>
       <r>   -9.6794    1.0000 </r>
       <r>   -9.6790    1.0000 </r>
       <r>   -9.5768    1.0000 </r>
       <r>   -9.5766    1.0000 </r>
       <r>   -9.4431    1.0000 </r>
       <r>   -9.4252    1.0000 </r>
       <r>   -9.4246    1.0000 </r>
       <r>   -9.3318    1.0000 </r>
       <r>   -9.1238    1.0000 </r>
       <r>   -9.1232    1.0000 </r>
       <r>   -9.0849    1.0000 </r>
       <r>   -9.0080    1.0000 </r>
       <r>   -8.9013    1.0000 </r>
       <r>   -8.8236    1.0000 </r>
       <r>   -8.8223    1.0000 </r>
       <r>   -8.7919    1.0000 </r>
       <r>   -8.7906    1.0000 </r>
       <r>   -8.6825    1.0000 </r>
       <r>   -8.6818    1.0000 </r>
       <r>   -8.6813    1.0000 </r>
       <r>   -8.5974    1.0000 </r>
       <r>   -8.5048    1.0000 </r>
       <r>   -8.5037    1.0000 </r>
       <r>   -8.2471    1.0000 </r>
       <r>   -8.2295    1.0000 </r>
       <r>   -8.2288    1.0000 </r>
       <r>   -7.9364    1.0000 </r>
       <r>   -7.9362    1.0000 </r>
       <r>   -7.8115    1.0000 </r>
       <r>   -7.7586    1.0000 </r>
       <r>   -7.7572    1.0000 </r>
       <r>   -7.7495    1.0000 </r>
       <r>   -7.7192    1.0000 </r>
       <r>   -7.6413    1.0000 </r>
       <r>   -7.6410    1.0000 </r>
       <r>   -7.5293    1.0000 </r>
       <r>   -7.4897    1.0000 </r>
       <r>   -7.4895    1.0000 </r>
       <r>   -7.2488    1.0000 </r>
       <r>   -7.2467    1.0000 </r>
       <r>   -7.1924    1.0000 </r>
       <r>   -6.9286    1.0000 </r>
       <r>   -6.9272    1.0000 </r>
       <r>   -6.8357    1.0000 </r>
       <r>   -6.8348    1.0000 </r>
       <r>   -6.7761    1.0000 </r>
       <r>   -6.7239    1.0000 </r>
       <r>   -6.6136    1.0000 </r>
       <r>   -6.4600    1.0000 </r>
       <r>   -6.4592    1.0000 </r>
       <r>   -6.2221    1.0000 </r>
       <r>   -6.2213    1.0000 </r>
       <r>   -6.1778    1.0000 </r>
       <r>   -6.1768    1.0000 </r>
       <r>   -6.1232    1.0000 </r>
       <r>   -6.1199    1.0000 </r>
       <r>   -6.1191    1.0000 </r>
       <r>   -6.1091    1.0000 </r>
[...]
       <r>   -20.4251    45.6669    42.0000 </r>
       <r>   -20.3303     0.0000    42.0000 </r>
       <r>   -20.2355     0.0000    42.0000 </r>
       <r>   -20.1406     9.2931    42.8813 </r>
       <r>   -20.0458    13.1760    45.1176 </r>
       <r>   -19.9509    13.7357    46.9705 </r>
       <r>   -19.8561    15.1288    48.5020 </r>
       <r>   -19.7613    12.6749    50.0039 </r>
       <r>   -19.6664     9.5885    51.1096 </r>
       <r>   -19.5716     2.9455    51.4461 </r>
       <r>   -19.4768     8.8391    52.3383 </r>
       <r>   -19.3819    12.2186    53.6595 </r>
       <r>   -19.2871     7.4790    54.5107 </r>
       <r>   -19.1922     8.4655    55.4702 </r>
       <r>   -19.0974    16.5155    57.1330 </r>
       <r>   -19.0026    10.7806    58.3905 </r>
       <r>   -18.9077     8.8830    59.4096 </r>
       <r>   -18.8129     4.9162    60.0000 </r>
       <r>   -18.7181     0.2843    60.0270 </r>
       <r>   -18.6232     8.4807    61.0716 </r>
       <r>   -18.5284    13.9280    62.4881 </r>
       <r>   -18.4335    15.0204    64.4262 </r>
       <r>   -18.3387     7.9826    65.3239 </r>
       <r>   -18.2439    29.9316    68.2055 </r>
       <r>   -18.1490    17.5629    70.5669 </r>
       <r>   -18.0542    11.7363    72.1468 </r>
       <r>   -17.9593    17.4452    73.8551 </r>
       <r>   -17.8645    11.8354    75.2227 </r>
       <r>   -17.7697    14.8918    76.9796 </r>
       <r>   -17.6748     7.7229    78.0000 </r>
       <r>   -17.5800     4.6716    78.4430 </r>
       <r>   -17.4852    18.2002    80.3937 </r>
       <r>   -17.3903     5.3663    81.0762 </r>
       <r>   -17.2955     5.4276    81.8485 </r>
       <r>   -17.2006     5.1891    82.4255 </r>
       <r>   -17.1058     6.1454    83.0835 </r>
       <r>   -17.0110     2.1367    83.3360 </r>
       <r>   -16.9161     2.2507    83.5801 </r>
       <r>   -16.8213     3.8362    83.9972 </r>
       <r>   -16.7265     0.0000    84.0000 </r>
       <r>   -16.6316     0.0000    84.0000 </r>
       <r>   -16.5368     0.8327    84.0790 </r>
       <r>   -16.4419    16.7941    86.3302 </r>
       <r>   -16.3471     2.6250    86.6157 </r>
       <r>   -16.2523     2.3453    86.8891 </r>
       <r>   -16.1574    13.5630    88.2199 </r>
       <r>   -16.0626    16.5040    90.0000 </r>
       <r>   -15.9677    18.4719    91.7518 </r>
       <r>   -15.8729   132.0914   104.7948 </r>
       <r>   -15.7781     6.1476   105.6512 </r>
       <r>   -15.6832    22.4656   107.8979 </r>
       <r>   -15.5884     0.0000   108.0000 </r>
       <r>   -15.4936     0.0000   108.0000 </r>
       <r>   -15.3987     3.3174   108.3146 </r>
       <r>   -15.3039     0.0000   114.0000 </r>
       <r>   -15.2090     2.5585   114.2426 </r>
       <r>   -15.1142     4.9983   114.8744 </r>
       <r>   -15.0194    13.7607   116.2392 </r>
       <r>   -14.9245    31.5417   119.5920 </r>
       <r>   -14.8297     1.1047   120.1048 </r>
       <r>   -14.7348    22.2158   122.6084 </r>
       <r>   -14.6400    11.2441   123.9002 </r>
       <r>   -14.5452     0.0000   124.0000 </r>
       <r>   -14.4503    11.5701   125.0973 </r>
       <r>   -14.3555    17.3084   126.9764 </r>
       <r>   -14.2607    23.4099   129.2870 </r>
       <r>   -14.1658    22.4760   132.0000 </r>
       <r>   -14.0710     0.0000   132.0000 </r>
       <r>   -13.9761     0.0000   132.0000 </r>
       <r>   -13.8813     0.0000   132.0000 </r>
       <r>   -13.7865     0.0000   132.0000 </r>
       <r>   -13.6916     0.0000   132.0000 </r>
       <r>   -13.5968     0.0000   132.0000 </r>
       <r>   -13.5020     0.0000   132.0000 </r>
       <r>   -13.4071     0.0000   132.0000 </r>
       <r>   -13.3123     0.0000   132.0000 </r>
       <r>   -13.2174     7.2921   132.6916 </r>
       <r>   -13.1226    34.7130   138.0000 </r>
       <r>   -13.0278     0.0000   138.0000 </r>
       <r>   -12.9329     0.0000   138.0000 </r>
       <r>   -12.8381    63.1126   143.9855 </r>
       <r>   -12.7432     0.0000   144.0000 </r>
       <r>   -12.6484     0.0776   144.0074 </r>
       <r>   -12.5536   118.3559   155.2320 </r>
       <r>   -12.4587   111.5269   167.3121 </r>
       <r>   -12.3639     2.4329   168.0000 </r>
       <r>   -12.2691     2.0526   168.1947 </r>
       <r>   -12.1742    12.6563   169.6344 </r>
       <r>   -12.0794    15.8087   171.3330 </r>
       <r>   -11.9845    28.5276   174.2731 </r>
       <r>   -11.8897    47.7643   180.0000 </r>
       <r>   -11.7949     0.0000   180.0000 </r>
       <r>   -11.7000     0.0000   180.0000 </r>
       <r>   -11.6052     0.0000   180.0000 </r>
       <r>   -11.5104     0.0000   180.0000 </r>
       <r>   -11.4155    32.9122   183.1213 </r>
       <r>   -11.3207    16.2536   185.1088 </r>
       <r>   -11.2258    28.4646   188.0000 </r>
       <r>   -11.1310     0.0000   188.0000 </r>
       <r>   -11.0362     0.0801   188.0076 </r>
       <r>   -10.9413    15.1038   189.6339 </r>
       <r>   -10.8465    75.4434   197.0223 </r>
       <r>   -10.7516    71.3079   203.9967 </r>
       <r>   -10.6568     0.0000   204.0000 </r>
       <r>   -10.5620     0.0003   204.0000 </r>
       <r>   -10.4671    54.7498   209.1924 </r>
       <r>   -10.3723    51.6966   214.5039 </r>
       <r>   -10.2775    28.9751   218.2505 </r>
       <r>   -10.1826    43.6354   223.2404 </r>
       <r>   -10.0878    13.5290   224.9842 </r>
       <r>    -9.9929    18.5351   226.8580 </r>
       <r>    -9.8981    62.0787   233.1893 </r>
       <r>    -9.8033     0.0000   234.0000 </r>
       <r>    -9.7084    28.9625   236.7467 </r>
       <r>    -9.6136    28.6653   240.0203 </r>
       <r>    -9.5188    36.8902   243.8334 </r>
       <r>    -9.4239    33.3790   247.9990 </r>
       <r>    -9.3291    34.6067   251.6827 </r>
       <r>    -9.2342     0.0000   252.0000 </r>
       <r>    -9.1394     0.1088   252.0103 </r>
       <r>    -9.0446    62.6503   257.9520 </r>
       <r>    -8.9497    23.3900   261.4209 </r>
       <r>    -8.8549     4.5925   262.0023 </r>
       <r>    -8.7600    64.5652   268.1255 </r>
       <r>    -8.6652    38.9597   273.2031 </r>
       <r>    -8.5704    49.9433   279.0064 </r>
       <r>    -8.4755    30.2186   282.0000 </r>
       <r>    -8.3807     0.0000   282.0000 </r>
       <r>    -8.2859     0.0000   282.0000 </r>
       <r>    -8.1910    63.2657   288.0000 </r>
       <r>    -8.0962     0.0000   288.0000 </r>
       <r>    -8.0013     0.0000   288.0000 </r>
       <r>    -7.9065    29.6935   290.8161 </r>
       <r>    -7.8117    26.8358   293.5798 </r>
       <r>    -7.7168    59.6426   300.1631 </r>
       <r>    -7.6220    57.8776   305.9234 </r>
       <r>    -7.5272     3.1376   306.2976 </r>
       <r>    -7.4323    54.1073   312.0000 </r>
       <r>    -7.3375     0.0000   312.0000 </r>
       <r>    -7.2426    21.5021   314.0392 </r>
       <r>    -7.1478    22.4631   318.0000 </r>
       <r>    -7.0530     0.0000   318.0000 </r>
       <r>    -6.9581     8.2888   318.7861 </r>
       <r>    -6.8633    38.5733   323.0936 </r>
       <r>    -6.7684    29.2842   326.3116 </r>
       <r>    -6.6736    27.5679   329.1821 </r>
       <r>    -6.5788    22.0756   331.8277 </r>
       <r>    -6.4839    17.9029   333.7993 </r>
       <r>    -6.3891    11.2136   336.0000 </r>
       <r>    -6.2943     0.0000   336.0000 </r>
       <r>    -6.1994    46.4538   340.4056 </r>
       <r>    -6.1046    79.9281   350.2858 </r>
       <r>    -6.0097    30.6504   353.8412 </r>
       <r>    -5.9149     0.0000   354.0000 </r>
       <r>    -5.8201     0.0000   354.0000 </r>
       <r>    -5.7252     0.3719   354.0353 </r>
       <r>    -5.6304    35.8803   358.1424 </r>
       <r>    -5.5356    24.5045   360.9604 </r>
       <r>    -5.4407    25.4955   363.9197 </r>
       <r>    -5.3459    16.0954   365.5265 </r>
       <r>    -5.2510    45.6002   372.0000 </r>
       <r>    -5.1562     0.0000   372.0000 </r>
       <r>    -5.0614     0.0000   372.0000 </r>
       <r>    -4.9665     0.0000   372.0000 </r>
       <r>    -4.8717     0.0000   372.0000 </r>
       <r>    -4.7768    29.3765   374.7860 </r>
       <r>    -4.6820    27.7464   378.0000 </r>
       <r>    -4.5872     0.0000   378.0000 </r>
       <r>    -4.4923     0.0000   378.0000 </r>
       <r>    -4.3975     0.0000   378.0000 </r>
       <r>    -4.3027     0.0000   378.0000 </r>
       <r>    -4.2078     0.0000   378.0000 </r>
       <r>    -4.1130     0.0000   378.0000 </r>
       <r>    -4.0181     0.0000   378.0000 </r>
       <r>    -3.9233     0.0000   378.0000 </r>
       <r>    -3.8285     0.0000   378.0000 </r>
       <r>    -3.7336     0.0000   378.0000 </r>
       <r>    -3.6388     0.0000   378.0000 </r>
       <r>    -3.5440     0.0000   378.0000 </r>
       <r>    -3.4491     0.0000   378.0000 </r>
       <r>    -3.3543     0.0000   378.0000 </r>
       <r>    -3.2594     0.0000   378.0000 </r>
       <r>    -3.1646     0.0000   378.0000 </r>
       <r>    -3.0698     0.0000   378.0000 </r>
       <r>    -2.9749     0.0000   378.0000 </r>
       <r>    -2.8801     0.0000   378.0000 </r>
       <r>    -2.7852     0.0000   378.0000 </r>
       <r>    -2.6904     0.0000   378.0000 </r>
       <r>    -2.5956    10.0035   378.9487 </r>
       <r>    -2.5007    13.8931   380.4535 </r>
       <r>    -2.4059     7.6987   381.4655 </r>
       <r>    -2.3111    25.6503   384.0000 </r>
       <r>    -2.2162     0.0000   384.0000 </r>
       <r>    -2.1214     0.0000   384.0000 </r>
       <r>    -2.0265    21.7865   386.0662 </r>
       <r>    -1.9317    25.6019   390.0000 </r>
       <r>    -1.8369    62.8373   395.9594 </r>
       <r>    -1.7420     0.0000   396.0000 </r>
       <r>    -1.6472     0.0003   396.0000 </r>
       <r>    -1.5524    14.2598   397.3524 </r>
       <r>    -1.4575    80.4337   405.3298 </r>
       <r>    -1.3627    47.8872   410.2454 </r>
       <r>    -1.2678    30.5578   414.0000 </r>
       <r>    -1.1730     0.0000   414.0000 </r>
       <r>    -1.0782     0.0000   414.0000 </r>
       <r>    -0.9833    63.2657   420.0000 </r>
       <r>    -0.8885     0.0000   420.0000 </r>
       <r>    -0.7936     0.0000   420.0000 </r>
       <r>    -0.6988     0.0000   420.0000 </r>
       <r>    -0.6040     0.0000   420.0000 </r>
       <r>    -0.5091     0.0000   420.0000 </r>
       <r>    -0.4143    63.2451   425.9980 </r>
       <r>    -0.3195     0.0000   426.0000 </r>
       <r>    -0.2246     0.0000   426.0000 </r>
       <r>    -0.1298     0.2166   426.0205 </r>
       <r>    -0.0349    16.0897   427.8602 </r>
       <r>     0.0599    12.0834   429.3466 </r>
       <r>     0.1547    16.8061   431.0277 </r>
       <r>     0.2496    54.9659   436.5879 </r>
       <r>     0.3444    51.5540   441.7927 </r>
       <r>     0.4393    19.6126   443.9946 </r>
       <r>     0.5341    35.6274   448.0135 </r>
       <r>     0.6289    27.2994   450.9571 </r>
       <r>     0.7238    41.4956   455.4042 </r>
       <r>     0.8186    34.0555   459.6988 </r>
       <r>     0.9134    48.3726   464.6570 </r>
       <r>     1.0083    35.7940   468.9637 </r>
       <r>     1.1031    40.1212   473.8063 </r>
       <r>     1.1980    57.2371   479.8976 </r>
       <r>     1.2928    78.1145   487.8114 </r>
       <r>     1.3876    48.6209   493.6134 </r>
       <r>     1.4825    85.1512   503.4793 </r>
       <r>     1.5773    61.9699   510.0793 </r>
       <r>     1.6721    13.6825   512.0000 </r>
       <r>     1.7670     0.0000   512.0000 </r>
       <r>     1.8618     0.0000   512.0000 </r>
       <r>     1.9567     0.0000   512.0000 </r>
       <r>     2.0515     0.0000   512.0000 </r>
       <r>     2.1463     0.0000   512.0000 </r>
       <r>     2.2412     0.0000   512.0000 </r>
       <r>     2.3360     0.0000   512.0000 </r>
       <r>     2.4309     0.0000   512.0000 </r>
       <r>     2.5257     0.0000   512.0000 </r>
       <r>     2.6205     0.0000   512.0000 </r>
       <r>     2.7154     0.0000   512.0000 </r>
       <r>     2.8102     0.0000   512.0000 </r>
       <r>     2.9050     0.0000   512.0000 </r>
      </set>
     </set>
    </array>
   </total>
  </dos>
 </calculation>
 <structure name="finalpos" >
  <crystal>
   <varray name="basis" >
    <v>      23.14732842      -0.00228767       0.00000000 </v>
    <v>     -11.57559546      20.04837406       0.00000000 </v>
    <v>       0.00000006      -0.00059550      20.00000000 </v>
   </varray>
   <i name="volume">   9280.79635077 </i>
   <varray name="rec_basis" >
    <v>       0.04320400       0.02494526       0.00000074 </v>
    <v>       0.00000493       0.04988220       0.00000149 </v>
    <v>       0.00000000       0.00000000       0.05000000 </v>
   </varray>
  </crystal>
  <varray name="positions" >
   <v>       0.21084322       0.72206374       0.61763122 </v>
   <v>       0.25091670       0.62347894       0.51028106 </v>
   <v>       0.08322131       0.39211160       0.51083323 </v>
   <v>       0.08328365       0.68708236       0.50927690 </v>
   <v>       0.21032562       0.48359133       0.40317489 </v>
   <v>       0.40683133       0.77988397       0.51030763 </v>
   <v>       0.40464744       0.07060715       0.50948024 </v>
   <v>       0.34311929       0.94744479       0.51080371 </v>
   <v>       0.40742612       0.62408717       0.51062668 </v>
   <v>       0.40524956       0.33118209       0.51084638 </v>
   <v>       0.34370087       0.39277817       0.50945057 </v>
   <v>       0.54655340       0.82071424       0.61740393 </v>
   <v>       0.30853601       0.48493002       0.61754905 </v>
   <v>       0.49714135       0.19838501       0.61774354 </v>
   <v>       0.30725853       0.82074598       0.40321445 </v>
   <v>       0.54712625       0.72325635       0.40314232 </v>
   <v>       0.49614708       0.29528879       0.40329808 </v>
   <v>       0.63604017       0.23831924       0.51068922 </v>
   <v>       0.63809777       0.94754543       0.50948919 </v>
   <v>       0.63656229       0.39478917       0.51064733 </v>
   <v>       0.63876898       0.68771211       0.51095456 </v>
   <v>       0.69968462       0.07072027       0.51093593 </v>
   <v>       0.70029615       0.62607112       0.50949584 </v>
   <v>       0.83210283       0.29583033       0.61796499 </v>
   <v>       0.73477722       0.53235768       0.61808248 </v>
   <v>       0.79241122       0.39423850       0.51092094 </v>
   <v>       0.96004440       0.33054195       0.50960510 </v>
   <v>       0.96009353       0.62548444       0.51076662 </v>
   <v>       0.73582366       0.19710846       0.40354082 </v>
   <v>       0.83406081       0.53588038       0.40370051 </v>
   <v>       0.20787293       0.70630144       0.50958597 </v>
   <v>       0.23516347       0.74156051       0.56944682 </v>
   <v>       0.28918622       0.49006311       0.56941739 </v>
   <v>       0.20804798       0.49787761       0.51100033 </v>
   <v>       0.05726355       0.52661646       0.50997881 </v>
   <v>       0.09270334       0.49044498       0.51025975 </v>
   <v>       0.16300891       0.52661882       0.51059401 </v>
   <v>       0.19644212       0.59626029       0.51018475 </v>
   <v>       0.16301252       0.63246333       0.50966000 </v>
   <v>       0.09270609       0.59823076       0.50976429 </v>
   <v>       0.05571582       0.41903090       0.51034722 </v>
   <v>       0.05574024       0.63265977       0.50973317 </v>
   <v>       0.28828866       0.79593312       0.45128673 </v>
   <v>       0.23508861       0.48931536       0.45126026 </v>
   <v>       0.50361540       0.97353252       0.51008365 </v>
   <v>       0.43200290       0.93806475       0.51030472 </v>
   <v>       0.39784334       0.86776855       0.51060628 </v>
   <v>       0.43406767       0.83435066       0.51021056 </v>
   <v>       0.50371574       0.86783007       0.50969495 </v>
   <v>       0.53980008       0.93811872       0.50988713 </v>
   <v>       0.39755000       0.97500964       0.51034756 </v>
   <v>       0.53919477       0.04471752       0.51010941 </v>
   <v>       0.50300388       0.08014337       0.50996570 </v>
   <v>       0.53912652       0.15045261       0.50993070 </v>
   <v>       0.43159090       0.04312890       0.50990292 </v>
   <v>       0.50421823       0.52727204       0.51016841 </v>
   <v>       0.54041912       0.59889649       0.51044186 </v>
   <v>       0.50433773       0.63312303       0.51080080 </v>
   <v>       0.43467662       0.59687836       0.51044753 </v>
   <v>       0.39843211       0.52723454       0.50984918 </v>
   <v>       0.43259561       0.49109900       0.50995638 </v>
   <v>       0.39813954       0.41969138       0.50988835 </v>
   <v>       0.53978733       0.49164703       0.51013711 </v>
   <v>       0.53968929       0.38582919       0.51072165 </v>
   <v>       0.50359205       0.42003412       0.51035550 </v>
   <v>       0.43217764       0.38561282       0.51036616 </v>
   <v>       0.32402825       0.82281374       0.51099520 </v>
   <v>       0.53277661       0.82306984       0.50948027 </v>
   <v>       0.54129003       0.79612257       0.56930634 </v>
   <v>       0.53319434       0.70695831       0.51102888 </v>
   <v>       0.32460443       0.49832781       0.50962275 </v>
   <v>       0.51032608       0.19547306       0.50978639 </v>
   <v>       0.50235068       0.22285194       0.56958284 </v>
   <v>       0.51069966       0.31200103       0.51109944 </v>
   <v>       0.54160508       0.74243655       0.45122687 </v>
   <v>       0.50178643       0.27623179       0.45140508 </v>
   <v>       0.61120589       0.97508099       0.50990355 </v>
   <v>       0.60878025       0.18385852       0.51049193 </v>
   <v>       0.64498992       0.15043260       0.51078909 </v>
   <v>       0.61081183       0.08014446       0.51036760 </v>
   <v>       0.64525608       0.04319237       0.51040937 </v>
   <v>       0.61182954       0.63328666       0.51045240 </v>
   <v>       0.61140582       0.52779989       0.50996729 </v>
   <v>       0.64558500       0.49167863       0.50991204 </v>
   <v>       0.60934668       0.42203421       0.51045113 </v>
   <v>       0.64586123       0.59920126       0.50994643 </v>
   <v>       0.83530286       0.31149235       0.50991049 </v>
   <v>       0.80778371       0.27638777       0.56977812 </v>
   <v>       0.71881577       0.19532222       0.51126977 </v>
   <v>       0.71940799       0.52052289       0.50993986 </v>
   <v>       0.75435431       0.52775614       0.56986215 </v>
   <v>       0.83552152       0.52010674       0.51133427 </v>
   <v>       0.98606853       0.49101584       0.51002088 </v>
   <v>       0.95061762       0.41941181       0.50993991 </v>
   <v>       0.88030973       0.38526950       0.50997068 </v>
   <v>       0.84688224       0.42147864       0.51060442 </v>
   <v>       0.88034333       0.49111273       0.51078726 </v>
   <v>       0.95064637       0.52719992       0.51025908 </v>
   <v>       0.98758431       0.38497087       0.50992920 </v>
   <v>       0.98762363       0.59859682       0.51024963 </v>
   <v>       0.75473555       0.22197900       0.45160691 </v>
   <v>       0.80907620       0.52975006       0.45171676 </v>
   <v>       0.29430175       0.79791314       0.57006576 </v>
   <v>       0.23290570       0.49296743       0.57006378 </v>
   <v>       0.23214337       0.73663041       0.45061823 </v>
   <v>       0.29445383       0.49264571       0.45061359 </v>
   <v>       0.53854194       0.73703203       0.57001863 </v>
   <v>       0.50555246       0.28217388       0.57017390 </v>
   <v>       0.53840594       0.79856295       0.45048496 </v>
   <v>       0.50461824       0.21992540       0.45078618 </v>
   <v>       0.74846014       0.22031677       0.57035271 </v>
   <v>       0.81044167       0.52453095       0.57045880 </v>
   <v>       0.81101005       0.28118683       0.45094991 </v>
   <v>       0.74995282       0.52699440       0.45100796 </v>
  </varray>
 </structure>
</modeling>
