<?xml version="1.0" encoding="ISO-8859-1"?>
<modeling>
 <generator>
  <i name="program" type="string">vasp </i>
  <i name="version" type="string">5.4.4.18Apr17-6-g9f103f2a35  </i>
  <i name="subversion" type="string">(build Jun 07 2020 16:50:00) complex            parallel </i>
  <i name="platform" type="string">LinuxIFC </i>
  <i name="date" type="string">2023 02 24 </i>
  <i name="time" type="string">08:35:27 </i>
 </generator>
 <incar>
  <i type="string" name="SYSTEM">Simulation for cell shape cell volume r</i>
  <i type="int" name="ISTART">     1</i>
  <i type="string" name="PREC">high</i>
  <i type="string" name="ALGO">48</i>
  <i type="int" name="ICHARG">    11</i>
  <i type="int" name="NELM">   200</i>
  <i type="int" name="IBRION">    -1</i>
  <i name="EDIFF">      0.00001000</i>
  <i name="EDIFFG">     -0.01000000</i>
  <i type="int" name="NSW">     0</i>
  <i type="int" name="ISIF">     2</i>
  <i name="ENCUT">    500.00000000</i>
  <i name="POTIM">      0.30000000</i>
  <i type="string" name="LREAL">A</i>
  <i type="int" name="ISMEAR">     0</i>
  <i name="SIGMA">      0.01000000</i>
  <i type="int" name="NWRITE">     0</i>
  <i type="logical" name="LWAVE"> F  </i>
  <i type="logical" name="LCHARG"> F  </i>
  <v type="int" name="KPOINT_BSE">    -1     0     0     0</v>
  <i type="int" name="NELM">   200</i>
  <i type="string" name="GGA">PE</i>
 </incar>
 <structure name="primitive_cell" >
  <crystal>
   <varray name="basis" >
    <v>      28.88033200      -0.00764065       0.00000000 </v>
    <v>     -14.44714092      24.90505914       0.00000000 </v>
    <v>       0.00000000       0.00000000      20.00000000 </v>
   </varray>
   <i name="volume">  14383.11981513 </i>
   <varray name="rec_basis" >
    <v>       0.03463096       0.02008902       0.00000000 </v>
    <v>       0.00001062       0.04015865       0.00000000 </v>
    <v>       0.00000000       0.00000000       0.05000000 </v>
   </varray>
  </crystal>
  <varray name="positions" >
   <v>       0.26864733      -0.43302534      -0.45735747 </v>
   <v>       0.29703667      -0.38995569      -0.45707454 </v>
   <v>       0.27750879      -0.35374262      -0.45731003 </v>
   <v>       0.35223794      -0.37025171      -0.45667036 </v>
   <v>       0.20108318      -0.41377761      -0.47157861 </v>
   <v>       0.30983554      -0.48387974      -0.44321170 </v>
   <v>       0.32152514      -0.46224980       0.47221357 </v>
   <v>       0.22233475      -0.37462163      -0.45755092 </v>
   <v>       0.34162895      -0.46000968      -0.47969440 </v>
   <v>       0.37303332      -0.40463327      -0.45625945 </v>
   <v>       0.31323030      -0.29837032      -0.45721192 </v>
   <v>       0.38843887      -0.31433191      -0.45661068 </v>
   <v>       0.41211975      -0.38673144      -0.46998161 </v>
   <v>       0.36895711      -0.27863171      -0.45672717 </v>
   <v>       0.19884519      -0.34305835      -0.48138240 </v>
   <v>       0.37859048      -0.48233062      -0.48822270 </v>
   <v>       0.37234659      -0.47093409      -0.34883949 </v>
   <v>       0.29871428      -0.26997141      -0.45766445 </v>
   <v>       0.43134042      -0.29969957      -0.45652289 </v>
   <v>       0.21695680      -0.32293936       0.47056528 </v>
   <v>       0.32679292       0.46041046      -0.36540236 </v>
   <v>       0.20694371      -0.31113591      -0.44496683 </v>
   <v>       0.13947161      -0.37989621      -0.49012747 </v>
   <v>       0.36958655       0.49125127      -0.36507847 </v>
   <v>       0.15681380      -0.37374063      -0.35073635 </v>
   <v>       0.39070766      -0.46367087       0.40692803 </v>
   <v>       0.39416273       0.49695601      -0.43312815 </v>
   <v>       0.40185256      -0.47912964       0.45027423 </v>
   <v>       0.14588281      -0.39219477       0.40506434 </v>
   <v>       0.11925702      -0.40314460       0.44835283 </v>
   <v>       0.40335684      -0.22326088      -0.45622292 </v>
   <v>       0.10312805      -0.39517267      -0.43515130 </v>
   <v>       0.12213353      -0.37057604      -0.36708558 </v>
   <v>       0.38553199      -0.20201385      -0.47001442 </v>
   <v>       0.39017451       0.47928891      -0.32897857 </v>
   <v>       0.46068739      -0.21703718       0.47195689 </v>
   <v>       0.06459732      -0.44194142       0.44083596 </v>
   <v>       0.45852932      -0.19922021      -0.47982963 </v>
   <v>       0.13474167      -0.32755423      -0.36748365 </v>
   <v>       0.43072682       0.48203026      -0.43893717 </v>
   <v>       0.05144426      -0.43145782      -0.44107706 </v>
   <v>       0.48229056      -0.20732565      -0.44349473 </v>
   <v>       0.44099073      -0.49439614       0.44292076 </v>
   <v>       0.08940809      -0.39098384      -0.33109349 </v>
   <v>       0.03189687      -0.45543048       0.49917640 </v>
   <v>       0.06891743      -0.45649155       0.33482955 </v>
   <v>       0.45473692       0.48672355      -0.49863838 </v>
   <v>       0.04267595      -0.46817677       0.37845872 </v>
   <v>       0.45541328      -0.47556428       0.33688639 </v>
   <v>       0.46951131      -0.15773177      -0.34871671 </v>
   <v>       0.46735453      -0.48975612       0.38063774 </v>
   <v>       0.48090561      -0.13968542      -0.48807267 </v>
   <v>      -0.02410222      -0.49728882       0.49422224 </v>
   <v>       0.46212907      -0.14585254       0.40714836 </v>
   <v>      -0.00976089       0.49233287       0.37391310 </v>
   <v>       0.47770237      -0.11930641       0.45061665 </v>
   <v>      -0.49264029      -0.12272189      -0.36495055 </v>
   <v>       0.49694267       0.47326753       0.49664102 </v>
   <v>      -0.04383032       0.47667723       0.43137561 </v>
   <v>      -0.46221091      -0.13510686      -0.36560255 </v>
   <v>      -0.49828236      -0.10347247      -0.43279980 </v>
   <v>      -0.05544213       0.48918903      -0.45071677 </v>
   <v>      -0.02645734       0.47174566       0.32658194 </v>
   <v>      -0.49272127       0.49806807       0.37635298 </v>
   <v>      -0.48944228       0.45567060      -0.44817553 </v>
   <v>      -0.47681011       0.48003299       0.43394212 </v>
   <v>      -0.48033811      -0.09009833      -0.32870869 </v>
   <v>       0.49321661      -0.06461674       0.44360140 </v>
   <v>      -0.09763501       0.43478076       0.42922563 </v>
   <v>      -0.47199246      -0.49771004       0.32911502 </v>
   <v>      -0.10617659       0.44979103      -0.45409294 </v>
   <v>      -0.48321987      -0.05174280      -0.43824869 </v>
   <v>       0.47443635      -0.06861012       0.33759169 </v>
   <v>      -0.48775778      -0.03206670      -0.49780447 </v>
   <v>      -0.12930398       0.42029403       0.48586256 </v>
   <v>      -0.11420680       0.41340762       0.38222065 </v>
   <v>      -0.11605118       0.46894004      -0.35395850 </v>
   <v>       0.48874410      -0.04253129       0.38147483 </v>
   <v>      -0.44960643       0.44513854      -0.45126980 </v>
   <v>      -0.13829143       0.43697314      -0.39047829 </v>
   <v>      -0.43455358       0.46884721       0.43204707 </v>
   <v>      -0.14516889       0.39881287      -0.36886989 </v>
   <v>      -0.46812260       0.41693338      -0.35074242 </v>
   <v>      -0.41993637       0.45193065       0.48881645 </v>
   <v>      -0.43645165       0.42639426      -0.38743618 </v>
   <v>      -0.41302994       0.47397775       0.38515005 </v>
   <v>      -0.47392906       0.02392954       0.49776196 </v>
   <v>      -0.18667903       0.37544450       0.48304761 </v>
   <v>      -0.17792848       0.43260979      -0.39877581 </v>
   <v>      -0.49869978       0.00987734       0.37746325 </v>
   <v>      -0.19722053       0.35133149      -0.47044681 </v>
   <v>      -0.39830518       0.45804889      -0.36634413 </v>
   <v>      -0.19134134       0.34800466       0.44166756 </v>
   <v>      -0.48047645       0.04378614       0.43519169 </v>
   <v>      -0.43210617       0.39095549      -0.39518642 </v>
   <v>      -0.45613027       0.05512335      -0.44696501 </v>
   <v>       0.49727878       0.02668134       0.33032982 </v>
   <v>      -0.20652564       0.43651067       0.48104602 </v>
   <v>      -0.22227599       0.39670519       0.47257069 </v>
   <v>      -0.37500733       0.43970553       0.48607787 </v>
   <v>      -0.43561252       0.35846048       0.48461348 </v>
   <v>      -0.35112476       0.45311264      -0.46726320 </v>
   <v>      -0.34755530       0.46285532       0.44492172 </v>
   <v>      -0.39613320       0.38272027       0.47488787 </v>
   <v>      -0.46889459       0.09755291       0.43357764 </v>
   <v>      -0.44516613       0.10581537      -0.44981531 </v>
   <v>      -0.27899104       0.28882274       0.47604121 </v>
   <v>      -0.27746046       0.36503478       0.47617946 </v>
   <v>      -0.41644413       0.11527461      -0.34962548 </v>
   <v>      -0.47384513       0.11424149       0.38679440 </v>
   <v>      -0.45178514       0.12905373       0.49046057 </v>
   <v>      -0.42601159       0.13770128      -0.38592384 </v>
   <v>      -0.30240983       0.30895360       0.47715089 </v>
   <v>      -0.45736602       0.14425053      -0.36429526 </v>
   <v>      -0.36446048       0.35921097       0.47740699 </v>
   <v>      -0.28839644       0.43412599       0.47583898 </v>
   <v>      -0.43343487       0.27897257       0.47862034 </v>
   <v>      -0.30853985       0.39040925       0.47698045 </v>
   <v>      -0.38984107       0.30255666       0.47850296 </v>
   <v>      -0.39065654       0.17759392      -0.39385256 </v>
   <v>      -0.43921066       0.18652528       0.48803384 </v>
   <v>      -0.46271790       0.19096753       0.44756780 </v>
   <v>      -0.45176771       0.19724807      -0.46483250 </v>
   <v>      -0.35888365       0.27764386       0.47773571 </v>
   <v>      -0.35834795       0.20692062       0.48501223 </v>
   <v>      -0.38252469       0.22222970       0.47558509 </v>
  </varray>
 </structure>
 <varray name="primitive_index" >
  <v type="int" >        1 </v>
  <v type="int" >       70 </v>
  <v type="int" >       69 </v>
  <v type="int" >       71 </v>
  <v type="int" >        6 </v>
  <v type="int" >       48 </v>
  <v type="int" >       47 </v>
  <v type="int" >       57 </v>
  <v type="int" >      117 </v>
  <v type="int" >       56 </v>
  <v type="int" >       68 </v>
  <v type="int" >       72 </v>
  <v type="int" >        5 </v>
  <v type="int" >       67 </v>
  <v type="int" >      126 </v>
  <v type="int" >      109 </v>
  <v type="int" >       23 </v>
  <v type="int" >        3 </v>
  <v type="int" >        2 </v>
  <v type="int" >       53 </v>
  <v type="int" >       21 </v>
  <v type="int" >       54 </v>
  <v type="int" >      118 </v>
  <v type="int" >       90 </v>
  <v type="int" >       31 </v>
  <v type="int" >       43 </v>
  <v type="int" >       86 </v>
  <v type="int" >      112 </v>
  <v type="int" >       49 </v>
  <v type="int" >      121 </v>
  <v type="int" >       55 </v>
  <v type="int" >       93 </v>
  <v type="int" >       97 </v>
  <v type="int" >        4 </v>
  <v type="int" >       22 </v>
  <v type="int" >       41 </v>
  <v type="int" >      120 </v>
  <v type="int" >      108 </v>
  <v type="int" >       29 </v>
  <v type="int" >       63 </v>
  <v type="int" >       65 </v>
  <v type="int" >       42 </v>
  <v type="int" >      111 </v>
  <v type="int" >       30 </v>
  <v type="int" >      119 </v>
  <v type="int" >       51 </v>
  <v type="int" >      110 </v>
  <v type="int" >      125 </v>
  <v type="int" >       45 </v>
  <v type="int" >       15 </v>
  <v type="int" >      116 </v>
  <v type="int" >      100 </v>
  <v type="int" >       94 </v>
  <v type="int" >       37 </v>
  <v type="int" >      124 </v>
  <v type="int" >      103 </v>
  <v type="int" >       83 </v>
  <v type="int" >       87 </v>
  <v type="int" >      123 </v>
  <v type="int" >       13 </v>
  <v type="int" >       79 </v>
  <v type="int" >       66 </v>
  <v type="int" >       50 </v>
  <v type="int" >      115 </v>
  <v type="int" >       64 </v>
  <v type="int" >      114 </v>
  <v type="int" >       14 </v>
  <v type="int" >      102 </v>
  <v type="int" >      122 </v>
  <v type="int" >       44 </v>
  <v type="int" >       96 </v>
  <v type="int" >       61 </v>
  <v type="int" >       39 </v>
  <v type="int" >      101 </v>
  <v type="int" >       95 </v>
  <v type="int" >       52 </v>
  <v type="int" >       32 </v>
  <v type="int" >      107 </v>
  <v type="int" >       89 </v>
  <v type="int" >       98 </v>
  <v type="int" >      113 </v>
  <v type="int" >       34 </v>
  <v type="int" >       24 </v>
  <v type="int" >       88 </v>
  <v type="int" >       91 </v>
  <v type="int" >       46 </v>
  <v type="int" >       80 </v>
  <v type="int" >       99 </v>
  <v type="int" >       33 </v>
  <v type="int" >      106 </v>
  <v type="int" >       36 </v>
  <v type="int" >       26 </v>
  <v type="int" >       35 </v>
  <v type="int" >      105 </v>
  <v type="int" >       25 </v>
  <v type="int" >       62 </v>
  <v type="int" >       38 </v>
  <v type="int" >       12 </v>
  <v type="int" >       60 </v>
  <v type="int" >       92 </v>
  <v type="int" >       11 </v>
  <v type="int" >       28 </v>
  <v type="int" >       27 </v>
  <v type="int" >       59 </v>
  <v type="int" >      104 </v>
  <v type="int" >       82 </v>
  <v type="int" >        9 </v>
  <v type="int" >       75 </v>
  <v type="int" >       16 </v>
  <v type="int" >       40 </v>
  <v type="int" >       81 </v>
  <v type="int" >       84 </v>
  <v type="int" >       74 </v>
  <v type="int" >       18 </v>
  <v type="int" >       77 </v>
  <v type="int" >        7 </v>
  <v type="int" >        8 </v>
  <v type="int" >       76 </v>
  <v type="int" >       78 </v>
  <v type="int" >       17 </v>
  <v type="int" >       85 </v>
  <v type="int" >       19 </v>
  <v type="int" >       20 </v>
  <v type="int" >       73 </v>
  <v type="int" >       10 </v>
  <v type="int" >       58 </v>
 </varray>
 <kpoints>
  <generation param="listgenerated">
   <i name="divisions" type="int">      20 </i>
   <v>       0.00000000       0.00000000       0.00000000 </v>
   <v>       0.50000000       0.00000000       0.00000000 </v>
   <v>       0.33333333       0.33333333       0.00000000 </v>
   <v>       0.00000000       0.00000000       0.00000000 </v>
  </generation>
  <varray name="kpointlist" >
   <v>       0.00000000       0.00000000       0.00000000 </v>
   <v>       0.02631579       0.00000000       0.00000000 </v>
   <v>       0.05263158       0.00000000       0.00000000 </v>
   <v>       0.07894737       0.00000000       0.00000000 </v>
   <v>       0.10526316       0.00000000       0.00000000 </v>
   <v>       0.13157895       0.00000000       0.00000000 </v>
   <v>       0.15789474       0.00000000       0.00000000 </v>
   <v>       0.18421053       0.00000000       0.00000000 </v>
   <v>       0.21052632       0.00000000       0.00000000 </v>
   <v>       0.23684211       0.00000000       0.00000000 </v>
   <v>       0.26315789       0.00000000       0.00000000 </v>
   <v>       0.28947368       0.00000000       0.00000000 </v>
   <v>       0.31578947       0.00000000       0.00000000 </v>
   <v>       0.34210526       0.00000000       0.00000000 </v>
   <v>       0.36842105       0.00000000       0.00000000 </v>
   <v>       0.39473684       0.00000000       0.00000000 </v>
   <v>       0.42105263       0.00000000       0.00000000 </v>
   <v>       0.44736842       0.00000000       0.00000000 </v>
   <v>       0.47368421       0.00000000       0.00000000 </v>
   <v>       0.50000000       0.00000000       0.00000000 </v>
   <v>       0.50000000       0.00000000       0.00000000 </v>
   <v>       0.49122807       0.01754386       0.00000000 </v>
   <v>       0.48245614       0.03508772       0.00000000 </v>
   <v>       0.47368421       0.05263158       0.00000000 </v>
   <v>       0.46491228       0.07017544       0.00000000 </v>
   <v>       0.45614035       0.08771930       0.00000000 </v>
   <v>       0.44736842       0.10526316       0.00000000 </v>
   <v>       0.43859649       0.12280702       0.00000000 </v>
   <v>       0.42982456       0.14035088       0.00000000 </v>
   <v>       0.42105263       0.15789474       0.00000000 </v>
   <v>       0.41228070       0.17543860       0.00000000 </v>
   <v>       0.40350877       0.19298246       0.00000000 </v>
   <v>       0.39473684       0.21052632       0.00000000 </v>
   <v>       0.38596491       0.22807018       0.00000000 </v>
   <v>       0.37719298       0.24561404       0.00000000 </v>
   <v>       0.36842105       0.26315789       0.00000000 </v>
   <v>       0.35964912       0.28070175       0.00000000 </v>
   <v>       0.35087719       0.29824561       0.00000000 </v>
   <v>       0.34210526       0.31578947       0.00000000 </v>
   <v>       0.33333333       0.33333333       0.00000000 </v>
   <v>       0.33333333       0.33333333       0.00000000 </v>
   <v>       0.31578947       0.31578947       0.00000000 </v>
   <v>       0.29824561       0.29824561       0.00000000 </v>
   <v>       0.28070175       0.28070175       0.00000000 </v>
   <v>       0.26315789       0.26315789       0.00000000 </v>
   <v>       0.24561404       0.24561404       0.00000000 </v>
   <v>       0.22807018       0.22807018       0.00000000 </v>
   <v>       0.21052632       0.21052632       0.00000000 </v>
   <v>       0.19298246       0.19298246       0.00000000 </v>
   <v>       0.17543860       0.17543860       0.00000000 </v>
   <v>       0.15789474       0.15789474       0.00000000 </v>
   <v>       0.14035088       0.14035088       0.00000000 </v>
   <v>       0.12280702       0.12280702       0.00000000 </v>
   <v>       0.10526316       0.10526316       0.00000000 </v>
   <v>       0.08771930       0.08771930       0.00000000 </v>
   <v>       0.07017544       0.07017544       0.00000000 </v>
   <v>       0.05263158       0.05263158       0.00000000 </v>
   <v>       0.03508772       0.03508772       0.00000000 </v>
   <v>       0.01754386       0.01754386       0.00000000 </v>
   <v>       0.00000000       0.00000000       0.00000000 </v>
  </varray>
  <varray name="weights" >
   <v>       0.01666667 </v>
   <v>       0.01666667 </v>
   <v>       0.01666667 </v>
   <v>       0.01666667 </v>
   <v>       0.01666667 </v>
   <v>       0.01666667 </v>
   <v>       0.01666667 </v>
   <v>       0.01666667 </v>
   <v>       0.01666667 </v>
   <v>       0.01666667 </v>
   <v>       0.01666667 </v>
   <v>       0.01666667 </v>
   <v>       0.01666667 </v>
   <v>       0.01666667 </v>
   <v>       0.01666667 </v>
   <v>       0.01666667 </v>
   <v>       0.01666667 </v>
   <v>       0.01666667 </v>
   <v>       0.01666667 </v>
   <v>       0.01666667 </v>
   <v>       0.01666667 </v>
   <v>       0.01666667 </v>
   <v>       0.01666667 </v>
   <v>       0.01666667 </v>
   <v>       0.01666667 </v>
   <v>       0.01666667 </v>
   <v>       0.01666667 </v>
   <v>       0.01666667 </v>
   <v>       0.01666667 </v>
   <v>       0.01666667 </v>
   <v>       0.01666667 </v>
   <v>       0.01666667 </v>
   <v>       0.01666667 </v>
   <v>       0.01666667 </v>
   <v>       0.01666667 </v>
   <v>       0.01666667 </v>
   <v>       0.01666667 </v>
   <v>       0.01666667 </v>
   <v>       0.01666667 </v>
   <v>       0.01666667 </v>
   <v>       0.01666667 </v>
   <v>       0.01666667 </v>
   <v>       0.01666667 </v>
   <v>       0.01666667 </v>
   <v>       0.01666667 </v>
   <v>       0.01666667 </v>
   <v>       0.01666667 </v>
   <v>       0.01666667 </v>
   <v>       0.01666667 </v>
   <v>       0.01666667 </v>
   <v>       0.01666667 </v>
   <v>       0.01666667 </v>
   <v>       0.01666667 </v>
   <v>       0.01666667 </v>
   <v>       0.01666667 </v>
   <v>       0.01666667 </v>
   <v>       0.01666667 </v>
   <v>       0.01666667 </v>
   <v>       0.01666667 </v>
   <v>       0.01666667 </v>
  </varray>
 </kpoints>
 <parameters>
  <separator name="general" >
   <i type="string" name="SYSTEM">Simulation for cell shape cell volume r</i>
   <i type="logical" name="LCOMPAT"> F  </i>
  </separator>
  <separator name="electronic" >
   <i type="string" name="PREC">high</i>
   <i name="ENMAX">    500.00000000</i>
   <i name="ENAUG">    644.87300000</i>
   <i name="EDIFF">      0.00001000</i>
   <i type="int" name="IALGO">    38</i>
   <i type="int" name="IWAVPR">    10</i>
   <i type="int" name="NBANDS">   256</i>
   <i name="NELECT">    354.00000000</i>
   <i type="int" name="TURBO">     0</i>
   <i type="int" name="IRESTART">     0</i>
   <i type="int" name="NREBOOT">     0</i>
   <i type="int" name="NMIN">     0</i>
   <i name="EREF">      0.00000000</i>
   <separator name="electronic smearing" >
    <i type="int" name="ISMEAR">     0</i>
    <i name="SIGMA">      0.01000000</i>
    <i name="KSPACING">      0.50000000</i>
    <i type="logical" name="KGAMMA"> T  </i>
   </separator>
   <separator name="electronic projectors" >
    <i type="logical" name="LREAL"> T  </i>
    <v name="ROPT">     -0.00040000     -0.00040000     -0.00040000</v>
    <i type="int" name="LMAXPAW">  -100</i>
    <i type="int" name="LMAXMIX">     2</i>
    <i type="logical" name="NLSPLINE"> F  </i>
   </separator>
   <separator name="electronic startup" >
    <i type="int" name="ISTART">     1</i>
    <i type="int" name="ICHARG">    11</i>
    <i type="int" name="INIWAV">     1</i>
   </separator>
   <separator name="electronic spin" >
    <i type="int" name="ISPIN">     1</i>
    <i type="logical" name="LNONCOLLINEAR"> F  </i>
    <v name="MAGMOM">      1.00000000      1.00000000      1.00000000      1.00000000      1.00000000      1.00000000      1.00000000      1.00000000      1.00000000      1.00000000      1.00000000      1.00000000      1.00000000      1.00000000      1.00000000      1.00000000      1.00000000      1.00000000      1.00000000      1.00000000
      1.00000000      1.00000000      1.00000000      1.00000000      1.00000000      1.00000000      1.00000000      1.00000000      1.00000000      1.00000000      1.00000000      1.00000000      1.00000000      1.00000000      1.00000000      1.00000000      1.00000000      1.00000000      1.00000000      1.00000000
      1.00000000      1.00000000      1.00000000      1.00000000      1.00000000      1.00000000      1.00000000      1.00000000      1.00000000      1.00000000      1.00000000      1.00000000      1.00000000      1.00000000      1.00000000      1.00000000      1.00000000      1.00000000      1.00000000      1.00000000
      1.00000000      1.00000000      1.00000000      1.00000000      1.00000000      1.00000000      1.00000000      1.00000000      1.00000000      1.00000000      1.00000000      1.00000000      1.00000000      1.00000000      1.00000000      1.00000000      1.00000000      1.00000000      1.00000000      1.00000000
      1.00000000      1.00000000      1.00000000      1.00000000      1.00000000      1.00000000      1.00000000      1.00000000      1.00000000      1.00000000      1.00000000      1.00000000      1.00000000      1.00000000      1.00000000      1.00000000      1.00000000      1.00000000      1.00000000      1.00000000
      1.00000000      1.00000000      1.00000000      1.00000000      1.00000000      1.00000000      1.00000000      1.00000000      1.00000000      1.00000000      1.00000000      1.00000000      1.00000000      1.00000000      1.00000000      1.00000000      1.00000000      1.00000000      1.00000000      1.00000000
      1.00000000      1.00000000      1.00000000      1.00000000      1.00000000      1.00000000</v>
    <i name="NUPDOWN">     -1.00000000</i>
    <i type="logical" name="LSORBIT"> F  </i>
    <v name="SAXIS">      0.00000000      0.00000000      1.00000000</v>
    <i type="logical" name="LSPIRAL"> F  </i>
    <v name="QSPIRAL">      0.00000000      0.00000000      0.00000000</v>
    <i type="logical" name="LZEROZ"> F  </i>
   </separator>
   <separator name="electronic exchange-correlation" >
    <i type="logical" name="LASPH"> F  </i>
    <i type="logical" name="LMETAGGA"> F  </i>
   </separator>
   <separator name="electronic convergence" >
    <i type="int" name="NELM">   200</i>
    <i type="int" name="NELMDL">     0</i>
    <i type="int" name="NELMIN">     2</i>
    <i name="ENINI">    500.00000000</i>
    <separator name="electronic convergence detail" >
     <i type="logical" name="LDIAG"> T  </i>
     <i type="logical" name="LSUBROT"> F  </i>
     <i name="WEIMIN">      0.00000000</i>
     <i name="EBREAK">      0.00000001</i>
     <i name="DEPER">      0.30000000</i>
     <i type="int" name="NRMM">     4</i>
     <i name="TIME">      0.40000000</i>
    </separator>
   </separator>
   <separator name="electronic mixer" >
    <i name="AMIX">      0.40000000</i>
    <i name="BMIX">      1.00000000</i>
    <i name="AMIN">      0.10000000</i>
    <i name="AMIX_MAG">      1.60000000</i>
    <i name="BMIX_MAG">      1.00000000</i>
    <separator name="electronic mixer details" >
     <i type="int" name="IMIX">     4</i>
     <i type="logical" name="MIXFIRST"> F  </i>
     <i type="int" name="MAXMIX">   -45</i>
     <i name="WC">    100.00000000</i>
     <i type="int" name="INIMIX">     1</i>
     <i type="int" name="MIXPRE">     1</i>
     <i type="int" name="MREMOVE">     5</i>
    </separator>
   </separator>
   <separator name="electronic dipolcorrection" >
    <i type="logical" name="LDIPOL"> F  </i>
    <i type="logical" name="LMONO"> F  </i>
    <i type="int" name="IDIPOL">     0</i>
    <i name="EPSILON">      1.00000000</i>
    <v name="DIPOL">   -100.00000000   -100.00000000   -100.00000000</v>
    <i name="EFIELD">      0.00000000</i>
   </separator>
  </separator>
  <separator name="grids" >
   <i type="int" name="NGX">   216</i>
   <i type="int" name="NGY">   210</i>
   <i type="int" name="NGZ">   150</i>
   <i type="int" name="NGXF">   320</i>
   <i type="int" name="NGYF">   320</i>
   <i type="int" name="NGZF">   224</i>
   <i type="logical" name="ADDGRID"> F  </i>
  </separator>
  <separator name="ionic" >
   <i type="int" name="NSW">     0</i>
   <i type="int" name="IBRION">    -1</i>
   <i type="int" name="MDALGO">     0</i>
   <i type="int" name="ISIF">     2</i>
   <i name="PSTRESS">      0.00000000</i>
   <i name="EDIFFG">     -0.01000000</i>
   <i type="int" name="NFREE">     0</i>
   <i name="POTIM">      0.30000000</i>
   <i name="SMASS">     -3.00000000</i>
   <i name="SCALEE">      1.00000000</i>
  </separator>
  <separator name="ionic md" >
   <i name="TEBEG">      0.00010000</i>
   <i name="TEEND">      0.00010000</i>
   <i type="int" name="NBLOCK">     1</i>
   <i type="int" name="KBLOCK">     1</i>
   <i type="int" name="NPACO">   256</i>
   <i name="APACO">     16.00000000</i>
  </separator>
  <separator name="symmetry" >
   <i type="int" name="ISYM">     2</i>
   <i name="SYMPREC">      0.00001000</i>
  </separator>
  <separator name="dos" >
   <i type="int" name="LORBIT">     0</i>
   <v name="RWIGS">     -1.00000000     -1.00000000     -1.00000000</v>
   <i type="int" name="NEDOS">   301</i>
   <i name="EMIN">     10.00000000</i>
   <i name="EMAX">    -10.00000000</i>
   <i name="EFERMI">      0.00000000</i>
  </separator>
  <separator name="writing" >
   <i type="int" name="NWRITE">     0</i>
   <i type="logical" name="LWAVE"> F  </i>
   <i type="logical" name="LDOWNSAMPLE"> F  </i>
   <i type="logical" name="LCHARG"> F  </i>
   <i type="logical" name="LPARD"> F  </i>
   <i type="logical" name="LVTOT"> F  </i>
   <i type="logical" name="LVHAR"> F  </i>
   <i type="logical" name="LELF"> F  </i>
   <i type="logical" name="LOPTICS"> F  </i>
   <v name="STM">      0.00000000      0.00000000      0.00000000      0.00000000      0.00000000      0.00000000      0.00000000</v>
  </separator>
  <separator name="performance" >
   <i type="int" name="NPAR">    16</i>
   <i type="int" name="NSIM">     4</i>
   <i type="int" name="NBLK">    -1</i>
   <i type="logical" name="LPLANE"> T  </i>
   <i type="logical" name="LSCALAPACK"> T  </i>
   <i type="logical" name="LSCAAWARE"> F  </i>
   <i type="logical" name="LSCALU"> F  </i>
   <i type="logical" name="LASYNC"> F  </i>
   <i type="logical" name="LORBITALREAL"> F  </i>
  </separator>
  <separator name="miscellaneous" >
   <i type="int" name="IDIOT">     3</i>
   <i type="int" name="ISPECIAL">     0</i>
   <i type="logical" name="LMUSIC"> F  </i>
   <v name="POMASS">      1.00000000     14.00100000     12.01100000</v>
   <v name="DARWINR">      0.00000000      0.00000000      0.00000000</v>
   <v name="DARWINV">      1.00000000      1.00000000      1.00000000</v>
   <i type="logical" name="LCORR"> T  </i>
  </separator>
  <i type="logical" name="GGA_COMPAT"> T  </i>
  <i type="logical" name="LBERRY"> F  </i>
  <i type="int" name="ICORELEVEL">     0</i>
  <i type="logical" name="LDAU"> F  </i>
  <i type="int" name="I_CONSTRAINED_M">     0</i>
  <separator name="electronic exchange-correlation" >
   <i type="string" name="GGA">PE</i>
   <i type="int" name="VOSKOWN">     0</i>
   <i type="logical" name="LHFCALC"> F  </i>
   <i type="string" name="PRECFOCK"></i>
   <i type="logical" name="LSYMGRAD"> F  </i>
   <i type="logical" name="LHFONE"> F  </i>
   <i type="logical" name="LRHFCALC"> F  </i>
   <i type="logical" name="LTHOMAS"> F  </i>
   <i type="logical" name="LMODELHF"> F  </i>
   <i name="ENCUT4O">     -1.00000000</i>
   <i type="int" name="EXXOEP">     0</i>
   <i type="int" name="FOURORBIT">     0</i>
   <i name="AEXX">      0.00000000</i>
   <i name="HFALPHA">      0.00000000</i>
   <i name="MCALPHA">      0.00000000</i>
   <i name="ALDAX">      1.00000000</i>
   <i name="AGGAX">      1.00000000</i>
   <i name="ALDAC">      1.00000000</i>
   <i name="AGGAC">      1.00000000</i>
   <i type="int" name="NKREDX">     1</i>
   <i type="int" name="NKREDY">     1</i>
   <i type="int" name="NKREDZ">     1</i>
   <i type="logical" name="SHIFTRED"> F  </i>
   <i type="logical" name="ODDONLY"> F  </i>
   <i type="logical" name="EVENONLY"> F  </i>
   <i type="int" name="LMAXFOCK">     0</i>
   <i type="int" name="NMAXFOCKAE">     0</i>
   <i type="logical" name="LFOCKAEDFT"> F  </i>
   <i name="HFSCREEN">      0.00000000</i>
   <i name="HFSCREENC">      0.00000000</i>
   <i type="int" name="NBANDSGWLOW">     0</i>
  </separator>
  <separator name="vdW DFT" >
   <i type="logical" name="LUSE_VDW"> F  </i>
   <i name="Zab_VDW">     -0.84910000</i>
   <i name="PARAM1">      0.12340000</i>
   <i name="PARAM2">      1.00000000</i>
   <i name="PARAM3">      0.00000000</i>
  </separator>
  <separator name="model GW" >
   <i type="int" name="MODEL_GW">     0</i>
   <i name="MODEL_EPS0">     68.49104674</i>
   <i name="MODEL_ALPHA">      1.00000000</i>
  </separator>
  <separator name="linear response parameters" >
   <i type="logical" name="LEPSILON"> F  </i>
   <i type="logical" name="LRPA"> F  </i>
   <i type="logical" name="LNABLA"> F  </i>
   <i type="logical" name="LVEL"> F  </i>
   <i type="int" name="KINTER">     0</i>
   <i name="CSHIFT">      0.10000000</i>
   <i name="OMEGAMAX">     -1.00000000</i>
   <i name="DEG_THRESHOLD">      0.00200000</i>
   <i name="RTIME">     -0.10000000</i>
   <i name="WPLASMAI">      0.00000000</i>
   <v name="DFIELD">      0.00000000      0.00000000      0.00000000</v>
   <v name="WPLASMA">      0.00000000      0.00000000      0.00000000      0.00000000      0.00000000      0.00000000      0.00000000      0.00000000      0.00000000</v>
  </separator>
  <separator name="orbital magnetization" >
   <i type="logical" name="NUCIND"> F  </i>
   <v name="MAGPOS">      0.00000000      0.00000000      0.00000000</v>
   <i type="logical" name="LNICSALL"> T  </i>
   <i type="logical" name="ORBITALMAG"> F  </i>
   <i type="logical" name="LMAGBLOCH"> F  </i>
   <i type="logical" name="LCHIMAG"> F  </i>
   <i type="logical" name="LGAUGE"> T  </i>
   <i type="int" name="MAGATOM">     0</i>
   <v name="MAGDIPOL">      0.00000000      0.00000000      0.00000000</v>
   <v name="AVECCONST">      0.00000000      0.00000000      0.00000000</v>
  </separator>
  <separator name="response functions" >
   <i type="logical" name="LADDER"> F  </i>
   <i type="logical" name="LRPAFORCE"> F  </i>
   <i type="logical" name="LFXC"> F  </i>
   <i type="logical" name="LHARTREE"> T  </i>
   <i type="int" name="IBSE">     0</i>
   <v type="int" name="KPOINT">    -1     0     0     0</v>
   <i type="logical" name="LTCTE"> F  </i>
   <i type="logical" name="LTETE"> F  </i>
   <i type="logical" name="LTRIPLET"> F  </i>
   <i type="logical" name="LFXCEPS"> F  </i>
   <i type="logical" name="LFXHEG"> F  </i>
   <i type="int" name="NATURALO">     2</i>
   <i type="logical" name="L2ORDER"> F  </i>
   <i type="logical" name="LMP2LT"> F  </i>
   <i type="logical" name="LUSEW"> F  </i>
   <i name="ENCUTGW">     -2.00000000</i>
   <i name="ENCUTGWSOFT">     -2.00000000</i>
   <i name="ENCUTLF">     -1.00000000</i>
   <i type="int" name="LMAXMP2">    -1</i>
   <i name="SCISSOR">      0.00000000</i>
   <i type="int" name="NOMEGA">     0</i>
   <i type="int" name="NOMEGAR">     0</i>
   <i type="int" name="NBANDSGW">    -1</i>
   <i type="int" name="NBANDSO">    -1</i>
   <i type="int" name="NBANDSV">    -1</i>
   <i type="int" name="NELM">   200</i>
   <i type="int" name="NELMHF">     1</i>
   <i type="int" name="DIM">     3</i>
   <i type="int" name="ANTIRES">     0</i>
   <i name="OMEGAMAX">    -30.00000000</i>
   <i name="OMEGAMIN">    -30.00000000</i>
   <i name="OMEGATL">   -200.00000000</i>
   <i type="int" name="OMEGAGRID">   140</i>
   <i name="CSHIFT">     -0.10000000</i>
   <i type="logical" name="SELFENERGY"> F  </i>
   <i type="logical" name="LSPECTRAL"> F  </i>
   <i type="logical" name="LSPECTRALGW"> F  </i>
   <i type="logical" name="LSINGLES"> F  </i>
   <i type="logical" name="LFERMIGW"> F  </i>
   <i type="logical" name="ODDONLYGW"> F  </i>
   <i type="logical" name="EVENONLYGW"> F  </i>
   <i type="int" name="NKREDLFX">     1</i>
   <i type="int" name="NKREDLFY">     1</i>
   <i type="int" name="NKREDLFZ">     1</i>
   <i type="int" name="MAXMEM">  2800</i>
   <i type="int" name="TELESCOPE">     0</i>
   <i type="int" name="TAUPAR">     1</i>
   <i type="int" name="OMEGAPAR">    -1</i>
   <i name="LAMBDA">      1.00000000</i>
  </separator>
  <separator name="External order field" >
   <i name="OFIELD_KAPPA">      0.00000000</i>
   <v name="OFIELD_K">      0.00000000      0.00000000      0.00000000</v>
   <i name="OFIELD_Q6_NEAR">      0.00000000</i>
   <i name="OFIELD_Q6_FAR">      0.00000000</i>
   <i name="OFIELD_A">      0.00000000</i>
  </separator>
  <separator name="solvation model" >
   <i type="logical" name="LSOL"> F  </i>
  </separator>
 </parameters>
 <atominfo>
  <atoms>     126 </atoms>
  <types>       3 </types>
  <array name="atoms" >
   <dimension dim="1">ion</dimension>
   <field type="string">element</field>
   <field type="int">atomtype</field>
   <set>
    <rc><c>H </c><c>   1</c></rc>
    <rc><c>H </c><c>   1</c></rc>
    <rc><c>H </c><c>   1</c></rc>
    <rc><c>H </c><c>   1</c></rc>
    <rc><c>H </c><c>   1</c></rc>
    <rc><c>H </c><c>   1</c></rc>
    <rc><c>H </c><c>   1</c></rc>
    <rc><c>H </c><c>   1</c></rc>
    <rc><c>H </c><c>   1</c></rc>
    <rc><c>H </c><c>   1</c></rc>
    <rc><c>H </c><c>   1</c></rc>
    <rc><c>H </c><c>   1</c></rc>
    <rc><c>H </c><c>   1</c></rc>
    <rc><c>H </c><c>   1</c></rc>
    <rc><c>H </c><c>   1</c></rc>
    <rc><c>H </c><c>   1</c></rc>
    <rc><c>H </c><c>   1</c></rc>
    <rc><c>H </c><c>   1</c></rc>
    <rc><c>H </c><c>   1</c></rc>
    <rc><c>H </c><c>   1</c></rc>
    <rc><c>H </c><c>   1</c></rc>
    <rc><c>H </c><c>   1</c></rc>
    <rc><c>H </c><c>   1</c></rc>
    <rc><c>H </c><c>   1</c></rc>
    <rc><c>H </c><c>   1</c></rc>
    <rc><c>H </c><c>   1</c></rc>
    <rc><c>H </c><c>   1</c></rc>
    <rc><c>H </c><c>   1</c></rc>
    <rc><c>H </c><c>   1</c></rc>
    <rc><c>H </c><c>   1</c></rc>
    <rc><c>H </c><c>   1</c></rc>
    <rc><c>H </c><c>   1</c></rc>
    <rc><c>H </c><c>   1</c></rc>
    <rc><c>H </c><c>   1</c></rc>
    <rc><c>H </c><c>   1</c></rc>
    <rc><c>H </c><c>   1</c></rc>
    <rc><c>H </c><c>   1</c></rc>
    <rc><c>H </c><c>   1</c></rc>
    <rc><c>H </c><c>   1</c></rc>
    <rc><c>H </c><c>   1</c></rc>
    <rc><c>H </c><c>   1</c></rc>
    <rc><c>H </c><c>   1</c></rc>
    <rc><c>H </c><c>   1</c></rc>
    <rc><c>H </c><c>   1</c></rc>
    <rc><c>H </c><c>   1</c></rc>
    <rc><c>H </c><c>   1</c></rc>
    <rc><c>H </c><c>   1</c></rc>
    <rc><c>H </c><c>   1</c></rc>
    <rc><c>H </c><c>   1</c></rc>
    <rc><c>H </c><c>   1</c></rc>
    <rc><c>H </c><c>   1</c></rc>
    <rc><c>H </c><c>   1</c></rc>
    <rc><c>H </c><c>   1</c></rc>
    <rc><c>H </c><c>   1</c></rc>
    <rc><c>N </c><c>   2</c></rc>
    <rc><c>N </c><c>   2</c></rc>
    <rc><c>N </c><c>   2</c></rc>
    <rc><c>N </c><c>   2</c></rc>
    <rc><c>N </c><c>   2</c></rc>
    <rc><c>N </c><c>   2</c></rc>
    <rc><c>N </c><c>   2</c></rc>
    <rc><c>N </c><c>   2</c></rc>
    <rc><c>N </c><c>   2</c></rc>
    <rc><c>N </c><c>   2</c></rc>
    <rc><c>N </c><c>   2</c></rc>
    <rc><c>N </c><c>   2</c></rc>
    <rc><c>C </c><c>   3</c></rc>
    <rc><c>C </c><c>   3</c></rc>
    <rc><c>C </c><c>   3</c></rc>
    <rc><c>C </c><c>   3</c></rc>
    <rc><c>C </c><c>   3</c></rc>
    <rc><c>C </c><c>   3</c></rc>
    <rc><c>C </c><c>   3</c></rc>
    <rc><c>C </c><c>   3</c></rc>
    <rc><c>C </c><c>   3</c></rc>
    <rc><c>C </c><c>   3</c></rc>
    <rc><c>C </c><c>   3</c></rc>
    <rc><c>C </c><c>   3</c></rc>
    <rc><c>C </c><c>   3</c></rc>
    <rc><c>C </c><c>   3</c></rc>
    <rc><c>C </c><c>   3</c></rc>
    <rc><c>C </c><c>   3</c></rc>
    <rc><c>C </c><c>   3</c></rc>
    <rc><c>C </c><c>   3</c></rc>
    <rc><c>C </c><c>   3</c></rc>
    <rc><c>C </c><c>   3</c></rc>
    <rc><c>C </c><c>   3</c></rc>
    <rc><c>C </c><c>   3</c></rc>
    <rc><c>C </c><c>   3</c></rc>
    <rc><c>C </c><c>   3</c></rc>
    <rc><c>C </c><c>   3</c></rc>
    <rc><c>C </c><c>   3</c></rc>
    <rc><c>C </c><c>   3</c></rc>
    <rc><c>C </c><c>   3</c></rc>
    <rc><c>C </c><c>   3</c></rc>
    <rc><c>C </c><c>   3</c></rc>
    <rc><c>C </c><c>   3</c></rc>
    <rc><c>C </c><c>   3</c></rc>
    <rc><c>C </c><c>   3</c></rc>
    <rc><c>C </c><c>   3</c></rc>
    <rc><c>C </c><c>   3</c></rc>
    <rc><c>C </c><c>   3</c></rc>
    <rc><c>C </c><c>   3</c></rc>
    <rc><c>C </c><c>   3</c></rc>
    <rc><c>C </c><c>   3</c></rc>
    <rc><c>C </c><c>   3</c></rc>
    <rc><c>C </c><c>   3</c></rc>
    <rc><c>C </c><c>   3</c></rc>
    <rc><c>C </c><c>   3</c></rc>
    <rc><c>C </c><c>   3</c></rc>
    <rc><c>C </c><c>   3</c></rc>
    <rc><c>C </c><c>   3</c></rc>
    <rc><c>C </c><c>   3</c></rc>
    <rc><c>C </c><c>   3</c></rc>
    <rc><c>C </c><c>   3</c></rc>
    <rc><c>C </c><c>   3</c></rc>
    <rc><c>C </c><c>   3</c></rc>
    <rc><c>C </c><c>   3</c></rc>
    <rc><c>C </c><c>   3</c></rc>
    <rc><c>C </c><c>   3</c></rc>
    <rc><c>C </c><c>   3</c></rc>
    <rc><c>C </c><c>   3</c></rc>
    <rc><c>C </c><c>   3</c></rc>
    <rc><c>C </c><c>   3</c></rc>
    <rc><c>C </c><c>   3</c></rc>
    <rc><c>C </c><c>   3</c></rc>
   </set>
  </array>
  <array name="atomtypes" >
   <dimension dim="1">type</dimension>
   <field type="int">atomspertype</field>
   <field type="string">element</field>
   <field>mass</field>
   <field>valence</field>
   <field type="string">pseudopotential</field>
   <set>
    <rc><c>  54</c><c>H </c><c>      1.00000000</c><c>      1.00000000</c><c>  PAW_PBE H 15Jun2001                   </c></rc>
    <rc><c>  12</c><c>N </c><c>     14.00100000</c><c>      5.00000000</c><c>  PAW_PBE N 08Apr2002                   </c></rc>
    <rc><c>  60</c><c>C </c><c>     12.01100000</c><c>      4.00000000</c><c>  PAW_PBE C 08Apr2002                   </c></rc>
   </set>
  </array>
 </atominfo>
 <structure name="initialpos" >
  <crystal>
   <varray name="basis" >
    <v>      28.88033200      -0.00764065       0.00000000 </v>
    <v>     -14.44714092      24.90505914       0.00000000 </v>
    <v>       0.00000000       0.00000000      20.00000000 </v>
   </varray>
   <i name="volume">  14383.11981513 </i>
   <varray name="rec_basis" >
    <v>       0.03463096       0.02008902       0.00000000 </v>
    <v>       0.00001062       0.04015865       0.00000000 </v>
    <v>       0.00000000       0.00000000       0.05000000 </v>
   </varray>
  </crystal>
  <varray name="positions" >
   <v>       0.26864733       0.56697466       0.54264253 </v>
   <v>       0.43134042       0.70030043       0.54347711 </v>
   <v>       0.29871428       0.73002859       0.54233555 </v>
   <v>       0.38553199       0.79798615       0.52998558 </v>
   <v>       0.41211975       0.61326856       0.53001839 </v>
   <v>       0.20108318       0.58622239       0.52842139 </v>
   <v>       0.71160356       0.43412599       0.47583898 </v>
   <v>       0.56656513       0.27897257       0.47862034 </v>
   <v>       0.72100896       0.28882274       0.47604121 </v>
   <v>       0.64165205       0.20692062       0.48501223 </v>
   <v>       0.56438748       0.35846048       0.48461348 </v>
   <v>       0.79347436       0.43651067       0.48104602 </v>
   <v>       0.53778909       0.86489314       0.63439745 </v>
   <v>       0.51966189       0.90990167       0.67129131 </v>
   <v>       0.46951131       0.84226823       0.65128329 </v>
   <v>       0.58355587       0.11527461       0.65037452 </v>
   <v>       0.60934346       0.17759392       0.60614744 </v>
   <v>       0.54263398       0.14425053       0.63570474 </v>
   <v>       0.53728210       0.19096753       0.44756780 </v>
   <v>       0.54823229       0.19724807       0.53516750 </v>
   <v>       0.32679292       0.46041046       0.63459764 </v>
   <v>       0.39017451       0.47928891       0.67102143 </v>
   <v>       0.37234659       0.52906591       0.65116051 </v>
   <v>       0.53187740       0.41693338       0.64925758 </v>
   <v>       0.56789383       0.39095549       0.60481358 </v>
   <v>       0.60169482       0.45804889       0.63365587 </v>
   <v>       0.65244470       0.46285532       0.44492172 </v>
   <v>       0.64887524       0.45311264       0.53273680 </v>
   <v>       0.13474167       0.67244577       0.63251635 </v>
   <v>       0.08940809       0.60901616       0.66890651 </v>
   <v>       0.15681380       0.62625937       0.64926365 </v>
   <v>       0.88394882       0.46894004       0.64604150 </v>
   <v>       0.82207152       0.43260979       0.60122419 </v>
   <v>       0.85483111       0.39881287       0.63113011 </v>
   <v>       0.80865866       0.34800466       0.44166756 </v>
   <v>       0.80277947       0.35133149       0.52955319 </v>
   <v>       0.46212907       0.85414746       0.40714836 </v>
   <v>       0.49727878       0.02668134       0.33032982 </v>
   <v>       0.47443635       0.93138988       0.33759169 </v>
   <v>       0.52615487       0.11424149       0.38679440 </v>
   <v>       0.46068739       0.78296282       0.47195689 </v>
   <v>       0.48229056       0.79267435       0.55650527 </v>
   <v>       0.39070766       0.53632913       0.40692803 </v>
   <v>       0.52800754       0.50228996       0.32911502 </v>
   <v>       0.45541328       0.52443572       0.33688639 </v>
   <v>       0.58697006       0.47397775       0.38515005 </v>
   <v>       0.32152514       0.53775020       0.47221357 </v>
   <v>       0.30983554       0.51612026       0.55678830 </v>
   <v>       0.14588281       0.60780523       0.40506434 </v>
   <v>       0.97354266       0.47174566       0.32658194 </v>
   <v>       0.06891743       0.54350845       0.33482955 </v>
   <v>       0.88579320       0.41340762       0.38222065 </v>
   <v>       0.21695680       0.67706064       0.47056528 </v>
   <v>       0.20694371       0.68886409       0.55503317 </v>
   <v>       0.40335684       0.77673912       0.54377708 </v>
   <v>       0.37303332       0.59536673       0.54374055 </v>
   <v>       0.22233475       0.62537837       0.54244908 </v>
   <v>       0.61747531       0.22222970       0.47558509 </v>
   <v>       0.60386680       0.38272027       0.47488787 </v>
   <v>       0.77772401       0.39670519       0.47257069 </v>
   <v>       0.51678013       0.94825720       0.56175131 </v>
   <v>       0.54386973       0.05512335       0.55303499 </v>
   <v>       0.43072682       0.48203026       0.56106283 </v>
   <v>       0.51055772       0.45567060       0.55182447 </v>
   <v>       0.05144426       0.56854218       0.55892294 </v>
   <v>       0.94455787       0.48918903       0.54928323 </v>
   <v>       0.36895711       0.72136829       0.54327283 </v>
   <v>       0.31323030       0.70162968       0.54278808 </v>
   <v>       0.27750879       0.64625738       0.54268997 </v>
   <v>       0.29703667       0.61004431       0.54292546 </v>
   <v>       0.35223794       0.62974829       0.54332964 </v>
   <v>       0.38843887       0.68566809       0.54338932 </v>
   <v>       0.64111635       0.27764386       0.47773571 </v>
   <v>       0.69759017       0.30895360       0.47715089 </v>
   <v>       0.72253954       0.36503478       0.47617946 </v>
   <v>       0.69146015       0.39040925       0.47698045 </v>
   <v>       0.63553952       0.35921097       0.47740699 </v>
   <v>       0.61015893       0.30255666       0.47850296 </v>
   <v>       0.50171764       0.89652753       0.56720020 </v>
   <v>       0.52607094       0.02392954       0.49776196 </v>
   <v>       0.54821486       0.12905373       0.49046057 </v>
   <v>       0.55483387       0.10581537       0.55018469 </v>
   <v>       0.50735971       0.87727811       0.63504945 </v>
   <v>       0.57398841       0.13770128       0.61407616 </v>
   <v>       0.56078934       0.18652528       0.48803384 </v>
   <v>       0.39416273       0.49695601       0.56687185 </v>
   <v>       0.49694267       0.47326753       0.49664102 </v>
   <v>       0.58006363       0.45193065       0.48881645 </v>
   <v>       0.55039357       0.44513854       0.54873020 </v>
   <v>       0.36958655       0.49125127       0.63492153 </v>
   <v>       0.56354835       0.42639426       0.61256382 </v>
   <v>       0.62499267       0.43970553       0.48607787 </v>
   <v>       0.10312805       0.60482733       0.56484870 </v>
   <v>       0.97589778       0.50271118       0.49422224 </v>
   <v>       0.87069602       0.42029403       0.48586256 </v>
   <v>       0.89382341       0.44979103       0.54590706 </v>
   <v>       0.12213353       0.62942396       0.63291442 </v>
   <v>       0.86170857       0.43697314       0.60952171 </v>
   <v>       0.81332097       0.37544450       0.48304761 </v>
   <v>       0.48090561       0.86031458       0.51192733 </v>
   <v>       0.51224222       0.96793330       0.50219553 </v>
   <v>       0.49321661       0.93538326       0.44360140 </v>
   <v>       0.47770237       0.88069359       0.45061665 </v>
   <v>       0.53110541       0.09755291       0.43357764 </v>
   <v>       0.51952355       0.04378614       0.43519169 </v>
   <v>       0.50130022       0.00987734       0.37746325 </v>
   <v>       0.48874410       0.95746871       0.38147483 </v>
   <v>       0.45852932       0.80077979       0.52017037 </v>
   <v>       0.37859048       0.51766938       0.51177730 </v>
   <v>       0.45473692       0.48672355       0.50136162 </v>
   <v>       0.44099073       0.50560386       0.44292076 </v>
   <v>       0.40185256       0.52087036       0.45027423 </v>
   <v>       0.56544642       0.46884721       0.43204707 </v>
   <v>       0.52318989       0.48003299       0.43394212 </v>
   <v>       0.50727873       0.49806807       0.37635298 </v>
   <v>       0.46735453       0.51024388       0.38063774 </v>
   <v>       0.34162895       0.53999032       0.52030560 </v>
   <v>       0.13947161       0.62010379       0.50987253 </v>
   <v>       0.03189687       0.54456952       0.49917640 </v>
   <v>       0.06459732       0.55805858       0.44083596 </v>
   <v>       0.11925702       0.59685540       0.44835283 </v>
   <v>       0.90236499       0.43478076       0.42922563 </v>
   <v>       0.95616968       0.47667723       0.43137561 </v>
   <v>       0.99023911       0.49233287       0.37391310 </v>
   <v>       0.04267595       0.53182323       0.37845872 </v>
   <v>       0.19884519       0.65694165       0.51861760 </v>
  </varray>
 </structure>
 <calculation>
  <scstep>
   <time name="dav">  625.09  631.80</time>
   <time name="total">  625.33  632.06</time>
   <energy>
    <i name="alphaZ">     39.92943338 </i>
    <i name="ewald">  42472.26380456 </i>
    <i name="hartreedc"> -52858.63524901 </i>
    <i name="XCdc">   1219.94583714 </i>
    <i name="pawpsdc">  31771.69999957 </i>
    <i name="pawaedc"> -31831.28629992 </i>
    <i name="eentropy">     -0.00000000 </i>
    <i name="bandstr">  -4330.25079221 </i>
    <i name="atom">  12677.59070727 </i>
    <i name="e_fr_energy">   -838.74255921 </i>
    <i name="e_wo_entrp">   -838.74255921 </i>
    <i name="e_0_energy">   -838.74255921 </i>
   </energy>
  </scstep>
  <scstep>
   <time name="dav">  714.02  721.45</time>
   <time name="total">  714.03  721.46</time>
   <energy>
    <i name="e_fr_energy">   -839.20745721 </i>
    <i name="e_wo_entrp">   -839.20745721 </i>
    <i name="e_0_energy">   -839.20745721 </i>
   </energy>
  </scstep>
  <scstep>
   <time name="dav">  770.83  779.13</time>
   <time name="total">  770.83  779.13</time>
   <energy>
    <i name="e_fr_energy">   -839.21970469 </i>
    <i name="e_wo_entrp">   -839.21970469 </i>
    <i name="e_0_energy">   -839.21970469 </i>
   </energy>
  </scstep>
  <scstep>
   <time name="dav">  703.30  710.77</time>
   <time name="total">  703.31  710.77</time>
   <energy>
    <i name="e_fr_energy">   -839.22001396 </i>
    <i name="e_wo_entrp">   -839.22001396 </i>
    <i name="e_0_energy">   -839.22001396 </i>
   </energy>
  </scstep>
  <scstep>
   <time name="dav">  669.11  676.26</time>
   <time name="total">  669.11  676.27</time>
   <energy>
    <i name="e_fr_energy">   -839.22002901 </i>
    <i name="e_wo_entrp">   -839.22002901 </i>
    <i name="e_0_energy">   -839.22002901 </i>
   </energy>
  </scstep>
  <scstep>
   <time name="dav">  552.49  558.27</time>
   <time name="total">  552.49  558.27</time>
   <energy>
    <i name="alphaZ">     39.92943338 </i>
    <i name="ewald">  42472.26380456 </i>
    <i name="hartreedc"> -52858.63524901 </i>
    <i name="XCdc">   1219.94583714 </i>
    <i name="pawpsdc">  31771.69999957 </i>
    <i name="pawaedc"> -31831.28629992 </i>
    <i name="eentropy">     -0.00000000 </i>
    <i name="bandstr">  -4330.72826276 </i>
    <i name="atom">  12677.59070727 </i>
    <i name="e_fr_energy">   -839.22002976 </i>
    <i name="e_wo_entrp">   -839.22002976 </i>
    <i name="e_0_energy">   -839.22002976 </i>
   </energy>
  </scstep>
  <structure>
   <crystal>
    <varray name="basis" >
     <v>      28.88033200      -0.00764065       0.00000000 </v>
     <v>     -14.44714092      24.90505914       0.00000000 </v>
     <v>       0.00000000       0.00000000      20.00000000 </v>
    </varray>
    <i name="volume">  14383.11981513 </i>
    <varray name="rec_basis" >
     <v>       0.03463096       0.02008902       0.00000000 </v>
     <v>       0.00001062       0.04015865       0.00000000 </v>
     <v>       0.00000000       0.00000000       0.05000000 </v>
    </varray>
   </crystal>
   <varray name="positions" >
    <v>       0.26864733       0.56697466       0.54264253 </v>
    <v>       0.43134042       0.70030043       0.54347711 </v>
    <v>       0.29871428       0.73002859       0.54233555 </v>
    <v>       0.38553199       0.79798615       0.52998558 </v>
    <v>       0.41211975       0.61326856       0.53001839 </v>
    <v>       0.20108318       0.58622239       0.52842139 </v>
    <v>       0.71160356       0.43412599       0.47583898 </v>
    <v>       0.56656513       0.27897257       0.47862034 </v>
    <v>       0.72100896       0.28882274       0.47604121 </v>
    <v>       0.64165205       0.20692062       0.48501223 </v>
    <v>       0.56438748       0.35846048       0.48461348 </v>
    <v>       0.79347436       0.43651067       0.48104602 </v>
    <v>       0.53778909       0.86489314       0.63439745 </v>
    <v>       0.51966189       0.90990167       0.67129131 </v>
    <v>       0.46951131       0.84226823       0.65128329 </v>
    <v>       0.58355587       0.11527461       0.65037452 </v>
    <v>       0.60934346       0.17759392       0.60614744 </v>
    <v>       0.54263398       0.14425053       0.63570474 </v>
    <v>       0.53728210       0.19096753       0.44756780 </v>
    <v>       0.54823229       0.19724807       0.53516750 </v>
    <v>       0.32679292       0.46041046       0.63459764 </v>
    <v>       0.39017451       0.47928891       0.67102143 </v>
    <v>       0.37234659       0.52906591       0.65116051 </v>
    <v>       0.53187740       0.41693338       0.64925758 </v>
    <v>       0.56789383       0.39095549       0.60481358 </v>
    <v>       0.60169482       0.45804889       0.63365587 </v>
    <v>       0.65244470       0.46285532       0.44492172 </v>
    <v>       0.64887524       0.45311264       0.53273680 </v>
    <v>       0.13474167       0.67244577       0.63251635 </v>
    <v>       0.08940809       0.60901616       0.66890651 </v>
    <v>       0.15681380       0.62625937       0.64926365 </v>
    <v>       0.88394882       0.46894004       0.64604150 </v>
    <v>       0.82207152       0.43260979       0.60122419 </v>
    <v>       0.85483111       0.39881287       0.63113011 </v>
    <v>       0.80865866       0.34800466       0.44166756 </v>
    <v>       0.80277947       0.35133149       0.52955319 </v>
    <v>       0.46212907       0.85414746       0.40714836 </v>
    <v>       0.49727878       0.02668134       0.33032982 </v>
    <v>       0.47443635       0.93138988       0.33759169 </v>
    <v>       0.52615487       0.11424149       0.38679440 </v>
    <v>       0.46068739       0.78296282       0.47195689 </v>
    <v>       0.48229056       0.79267435       0.55650527 </v>
    <v>       0.39070766       0.53632913       0.40692803 </v>
    <v>       0.52800754       0.50228996       0.32911502 </v>
    <v>       0.45541328       0.52443572       0.33688639 </v>
    <v>       0.58697006       0.47397775       0.38515005 </v>
    <v>       0.32152514       0.53775020       0.47221357 </v>
    <v>       0.30983554       0.51612026       0.55678830 </v>
    <v>       0.14588281       0.60780523       0.40506434 </v>
    <v>       0.97354266       0.47174566       0.32658194 </v>
    <v>       0.06891743       0.54350845       0.33482955 </v>
    <v>       0.88579320       0.41340762       0.38222065 </v>
    <v>       0.21695680       0.67706064       0.47056528 </v>
    <v>       0.20694371       0.68886409       0.55503317 </v>
    <v>       0.40335684       0.77673912       0.54377708 </v>
    <v>       0.37303332       0.59536673       0.54374055 </v>
    <v>       0.22233475       0.62537837       0.54244908 </v>
    <v>       0.61747531       0.22222970       0.47558509 </v>
    <v>       0.60386680       0.38272027       0.47488787 </v>
    <v>       0.77772401       0.39670519       0.47257069 </v>
    <v>       0.51678013       0.94825720       0.56175131 </v>
    <v>       0.54386973       0.05512335       0.55303499 </v>
    <v>       0.43072682       0.48203026       0.56106283 </v>
    <v>       0.51055772       0.45567060       0.55182447 </v>
    <v>       0.05144426       0.56854218       0.55892294 </v>
    <v>       0.94455787       0.48918903       0.54928323 </v>
    <v>       0.36895711       0.72136829       0.54327283 </v>
    <v>       0.31323030       0.70162968       0.54278808 </v>
    <v>       0.27750879       0.64625738       0.54268997 </v>
    <v>       0.29703667       0.61004431       0.54292546 </v>
    <v>       0.35223794       0.62974829       0.54332964 </v>
    <v>       0.38843887       0.68566809       0.54338932 </v>
    <v>       0.64111635       0.27764386       0.47773571 </v>
    <v>       0.69759017       0.30895360       0.47715089 </v>
    <v>       0.72253954       0.36503478       0.47617946 </v>
    <v>       0.69146015       0.39040925       0.47698045 </v>
    <v>       0.63553952       0.35921097       0.47740699 </v>
    <v>       0.61015893       0.30255666       0.47850296 </v>
    <v>       0.50171764       0.89652753       0.56720020 </v>
    <v>       0.52607094       0.02392954       0.49776196 </v>
    <v>       0.54821486       0.12905373       0.49046057 </v>
    <v>       0.55483387       0.10581537       0.55018469 </v>
    <v>       0.50735971       0.87727811       0.63504945 </v>
    <v>       0.57398841       0.13770128       0.61407616 </v>
    <v>       0.56078934       0.18652528       0.48803384 </v>
    <v>       0.39416273       0.49695601       0.56687185 </v>
    <v>       0.49694267       0.47326753       0.49664102 </v>
    <v>       0.58006363       0.45193065       0.48881645 </v>
    <v>       0.55039357       0.44513854       0.54873020 </v>
    <v>       0.36958655       0.49125127       0.63492153 </v>
    <v>       0.56354835       0.42639426       0.61256382 </v>
    <v>       0.62499267       0.43970553       0.48607787 </v>
    <v>       0.10312805       0.60482733       0.56484870 </v>
    <v>       0.97589778       0.50271118       0.49422224 </v>
    <v>       0.87069602       0.42029403       0.48586256 </v>
    <v>       0.89382341       0.44979103       0.54590706 </v>
    <v>       0.12213353       0.62942396       0.63291442 </v>
    <v>       0.86170857       0.43697314       0.60952171 </v>
    <v>       0.81332097       0.37544450       0.48304761 </v>
    <v>       0.48090561       0.86031458       0.51192733 </v>
    <v>       0.51224222       0.96793330       0.50219553 </v>
    <v>       0.49321661       0.93538326       0.44360140 </v>
    <v>       0.47770237       0.88069359       0.45061665 </v>
    <v>       0.53110541       0.09755291       0.43357764 </v>
    <v>       0.51952355       0.04378614       0.43519169 </v>
    <v>       0.50130022       0.00987734       0.37746325 </v>
    <v>       0.48874410       0.95746871       0.38147483 </v>
    <v>       0.45852932       0.80077979       0.52017037 </v>
    <v>       0.37859048       0.51766938       0.51177730 </v>
    <v>       0.45473692       0.48672355       0.50136162 </v>
    <v>       0.44099073       0.50560386       0.44292076 </v>
    <v>       0.40185256       0.52087036       0.45027423 </v>
    <v>       0.56544642       0.46884721       0.43204707 </v>
    <v>       0.52318989       0.48003299       0.43394212 </v>
    <v>       0.50727873       0.49806807       0.37635298 </v>
    <v>       0.46735453       0.51024388       0.38063774 </v>
    <v>       0.34162895       0.53999032       0.52030560 </v>
    <v>       0.13947161       0.62010379       0.50987253 </v>
    <v>       0.03189687       0.54456952       0.49917640 </v>
    <v>       0.06459732       0.55805858       0.44083596 </v>
    <v>       0.11925702       0.59685540       0.44835283 </v>
    <v>       0.90236499       0.43478076       0.42922563 </v>
    <v>       0.95616968       0.47667723       0.43137561 </v>
    <v>       0.99023911       0.49233287       0.37391310 </v>
    <v>       0.04267595       0.53182323       0.37845872 </v>
    <v>       0.19884519       0.65694165       0.51861760 </v>
   </varray>
  </structure>
  <varray name="forces" >
   <v>       0.00119352       0.00735826      -0.00150962 </v>
   <v>       0.00209961       0.00243887      -0.00056540 </v>
   <v>      -0.00032812       0.00114446       0.00015886 </v>
   <v>       0.00137672       0.00201483       0.00011432 </v>
   <v>       0.00471516       0.00435747      -0.00089428 </v>
   <v>      -0.00126581       0.00352369       0.00367600 </v>
   <v>       0.00021829      -0.00462252       0.00001248 </v>
   <v>      -0.00051902       0.00133600       0.00038258 </v>
   <v>       0.00178490      -0.00388699       0.00063491 </v>
   <v>      -0.00150775      -0.00214437      -0.00000484 </v>
   <v>      -0.00282283      -0.00240494       0.00068767 </v>
   <v>      -0.00122592      -0.00363275      -0.00178796 </v>
   <v>      -0.00468438       0.00104600      -0.00049894 </v>
   <v>      -0.00362733       0.00096237       0.00145064 </v>
   <v>      -0.00092437       0.00190117      -0.00014276 </v>
   <v>      -0.00181032       0.00092485       0.00001858 </v>
   <v>      -0.00441012      -0.00158729       0.00178018 </v>
   <v>      -0.00087921       0.00150024      -0.00071498 </v>
   <v>      -0.00300939       0.00023228       0.00173779 </v>
   <v>      -0.00322657      -0.00233378      -0.00359543 </v>
   <v>       0.00001130       0.00327717      -0.00028613 </v>
   <v>       0.00130201       0.00139360       0.00021227 </v>
   <v>       0.00169649      -0.00002409      -0.00320213 </v>
   <v>      -0.00246249       0.00021022       0.00085902 </v>
   <v>       0.00217154       0.00270350      -0.00301469 </v>
   <v>       0.00143856       0.00048520      -0.00265802 </v>
   <v>      -0.00092639      -0.00302120      -0.00012171 </v>
   <v>      -0.00222977      -0.00001855      -0.00451405 </v>
   <v>       0.00188884      -0.00035042       0.00036502 </v>
   <v>       0.00297349      -0.00076738      -0.00044992 </v>
   <v>      -0.00205318      -0.00046253       0.00280992 </v>
   <v>       0.00366608      -0.00527112      -0.00229486 </v>
   <v>       0.00344856      -0.00369764       0.00133200 </v>
   <v>       0.00270315      -0.00150687      -0.00468129 </v>
   <v>      -0.00095066      -0.00055811       0.00119429 </v>
   <v>       0.00203621      -0.00098948       0.00105908 </v>
   <v>       0.00141756       0.00017589       0.00268436 </v>
   <v>       0.00072468      -0.00054159      -0.00514670 </v>
   <v>       0.00221227       0.00065952       0.00161435 </v>
   <v>      -0.00067063       0.00195539      -0.00412516 </v>
   <v>      -0.00601415       0.00042707       0.00205824 </v>
   <v>       0.00027389       0.00309918      -0.00085446 </v>
   <v>      -0.00151718      -0.00199435       0.00118380 </v>
   <v>      -0.00025452      -0.00416585      -0.00579374 </v>
   <v>      -0.00297763      -0.00174233      -0.00259266 </v>
   <v>       0.00059365      -0.00503374      -0.00351432 </v>
   <v>       0.00213923      -0.00042777      -0.00090071 </v>
   <v>      -0.00187201       0.00081084       0.00348955 </v>
   <v>       0.00280580       0.00216214      -0.00176957 </v>
   <v>       0.00102578       0.00334870      -0.00117556 </v>
   <v>      -0.00214578       0.00461624      -0.00199035 </v>
   <v>      -0.00125634      -0.00089420      -0.00357821 </v>
   <v>       0.00436428      -0.00148636      -0.00155281 </v>
   <v>      -0.00193445       0.00595578       0.00084891 </v>
   <v>       0.00086960       0.00333018       0.00159764 </v>
   <v>       0.00107694       0.00387361       0.00186094 </v>
   <v>       0.00357186      -0.00138599       0.00011677 </v>
   <v>       0.00024671      -0.00004379      -0.00200966 </v>
   <v>       0.00232141      -0.00296146       0.00174410 </v>
   <v>       0.00029561       0.00309077      -0.00280375 </v>
   <v>       0.00027272       0.00089098      -0.00303345 </v>
   <v>       0.00155666      -0.00283676      -0.00018602 </v>
   <v>      -0.00162304       0.00874181       0.00088772 </v>
   <v>       0.00253592       0.00352500       0.00335669 </v>
   <v>       0.00124721      -0.00453334       0.00169669 </v>
   <v>       0.00359217      -0.00030369       0.00616023 </v>
   <v>       0.00092797      -0.00485589       0.00535788 </v>
   <v>      -0.00611406       0.00308133      -0.00151235 </v>
   <v>       0.00557248       0.00207196       0.00259868 </v>
   <v>      -0.00027261       0.00294258      -0.00127376 </v>
   <v>      -0.00632012       0.00242718      -0.00284253 </v>
   <v>      -0.00072336      -0.00494580      -0.00046806 </v>
   <v>      -0.00193147      -0.00352497      -0.00023592 </v>
   <v>       0.00024741       0.00217912       0.00091906 </v>
   <v>       0.00223008       0.00006189      -0.00004868 </v>
   <v>      -0.00088675      -0.00160542      -0.00052605 </v>
   <v>      -0.00391821      -0.00179229       0.00060030 </v>
   <v>      -0.00227167       0.00106142       0.00041335 </v>
   <v>      -0.00246541      -0.00051011      -0.00033781 </v>
   <v>      -0.00048560       0.00119083       0.00197061 </v>
   <v>       0.00059224      -0.00057370      -0.00106055 </v>
   <v>      -0.00144336      -0.00355079      -0.00138629 </v>
   <v>       0.00043914       0.00068217       0.00414864 </v>
   <v>      -0.00219584      -0.00459177      -0.00400013 </v>
   <v>      -0.00229168      -0.00054532      -0.00101078 </v>
   <v>      -0.00320710       0.00463310       0.00003918 </v>
   <v>       0.00035312      -0.00315217       0.00261104 </v>
   <v>       0.00089074       0.00022203      -0.00400452 </v>
   <v>       0.00207240       0.00329977      -0.00057428 </v>
   <v>      -0.00231573      -0.00108613       0.00607048 </v>
   <v>       0.00099851      -0.00134540       0.00448267 </v>
   <v>       0.00133918       0.00372973      -0.00043636 </v>
   <v>       0.00123947      -0.00520450       0.00313993 </v>
   <v>       0.00146170      -0.00426598       0.00377599 </v>
   <v>       0.00461105       0.00181177      -0.00165191 </v>
   <v>       0.00508064      -0.00006097       0.00274615 </v>
   <v>       0.00228926       0.00089643       0.00007434 </v>
   <v>      -0.00011944      -0.00266234       0.00391878 </v>
   <v>      -0.00022251      -0.00264500       0.00047242 </v>
   <v>      -0.00222884      -0.00190477      -0.00090553 </v>
   <v>      -0.00269298       0.00107305       0.00057190 </v>
   <v>      -0.00057239       0.00001774       0.00083307 </v>
   <v>       0.00261745      -0.00082165       0.00257590 </v>
   <v>      -0.00102736       0.00008120      -0.00037842 </v>
   <v>       0.00049482      -0.00051575       0.00357601 </v>
   <v>      -0.00057432       0.00261521      -0.00030597 </v>
   <v>       0.00234159       0.00165055      -0.00028903 </v>
   <v>       0.00029131      -0.00116405       0.00096542 </v>
   <v>       0.00148394      -0.00158424      -0.00465964 </v>
   <v>      -0.00188125      -0.00059811      -0.00002318 </v>
   <v>       0.00027730      -0.00204809       0.00060978 </v>
   <v>       0.00434772       0.00148544      -0.00210165 </v>
   <v>       0.00262520      -0.00079955       0.00108922 </v>
   <v>      -0.00132599      -0.00060579       0.00238912 </v>
   <v>      -0.00056572       0.00081103       0.00003966 </v>
   <v>      -0.00208480       0.00121174       0.00038238 </v>
   <v>       0.00241216      -0.00408396       0.00033536 </v>
   <v>       0.00006187       0.00034869       0.00343161 </v>
   <v>       0.00037823      -0.00570239      -0.00014707 </v>
   <v>       0.00106526      -0.00119129      -0.00282213 </v>
   <v>      -0.00242340      -0.00251750      -0.00458765 </v>
   <v>      -0.00141601      -0.00045057      -0.00162795 </v>
   <v>       0.00074289       0.00372355       0.00344608 </v>
   <v>       0.00124142       0.00337807       0.00150408 </v>
   <v>       0.00093617       0.00084662      -0.00190715 </v>
   <v>      -0.00642374       0.00553001       0.00021480 </v>
  </varray>
  <varray name="stress" >
   <v>      -0.00304995      -0.00533535      -0.00638196 </v>
   <v>      -0.00533535      -0.01355373      -0.00658732 </v>
   <v>      -0.00638196      -0.00658732      -0.16462447 </v>
  </varray>
  <energy>
   <i name="e_fr_energy">   -841.63016742 </i>
   <i name="e_wo_entrp">   -841.63016742 </i>
   <i name="e_0_energy">     -0.00000000 </i>
  </energy>
  <time name="totalsc"> 4752.15 4804.84</time>
  <eigenvalues>
   <array>
    <dimension dim="1">band</dimension>
    <dimension dim="2">kpoint</dimension>
    <dimension dim="3">spin</dimension>
    <field>eigene</field>
    <field>occ</field>
    <set>
     <set comment="spin 1">
      <set comment="kpoint 1">
       <r>  -23.4736    1.0000 </r>
       <r>  -23.4668    1.0000 </r>
       <r>  -23.4647    1.0000 </r>
       <r>  -23.1787    1.0000 </r>
       <r>  -23.0861    1.0000 </r>
       <r>  -23.0476    1.0000 </r>
       <r>  -23.0454    1.0000 </r>
       <r>  -22.8688    1.0000 </r>
       <r>  -22.8657    1.0000 </r>
       <r>  -22.8441    1.0000 </r>
       <r>  -22.7443    1.0000 </r>
       <r>  -22.7419    1.0000 </r>
       <r>  -20.8034    1.0000 </r>
       <r>  -20.8015    1.0000 </r>
       <r>  -20.8000    1.0000 </r>
       <r>  -20.3668    1.0000 </r>
       <r>  -20.2564    1.0000 </r>
       <r>  -19.9760    1.0000 </r>
       <r>  -19.9743    1.0000 </r>
       <r>  -19.8905    1.0000 </r>
       <r>  -19.8885    1.0000 </r>
       <r>  -19.6075    1.0000 </r>
       <r>  -19.4054    1.0000 </r>
       <r>  -19.0991    1.0000 </r>
       <r>  -19.0978    1.0000 </r>
       <r>  -18.7660    1.0000 </r>
       <r>  -18.5149    1.0000 </r>
       <r>  -18.5134    1.0000 </r>
       <r>  -18.4821    1.0000 </r>
       <r>  -17.8823    1.0000 </r>
       <r>  -17.8809    1.0000 </r>
       <r>  -17.7413    1.0000 </r>
       <r>  -17.7410    1.0000 </r>
       <r>  -17.3555    1.0000 </r>
       <r>  -17.0948    1.0000 </r>
       <r>  -17.0934    1.0000 </r>
       <r>  -17.0777    1.0000 </r>
       <r>  -16.9625    1.0000 </r>
       <r>  -16.9616    1.0000 </r>
       <r>  -16.8863    1.0000 </r>
       <r>  -16.6252    1.0000 </r>
       <r>  -16.6232    1.0000 </r>
       <r>  -16.1629    1.0000 </r>
       <r>  -16.1234    1.0000 </r>
       <r>  -16.1215    1.0000 </r>
       <r>  -15.2019    1.0000 </r>
       <r>  -15.2004    1.0000 </r>
       <r>  -15.1425    1.0000 </r>
       <r>  -14.7975    1.0000 </r>
       <r>  -14.7957    1.0000 </r>
       <r>  -14.7822    1.0000 </r>
       <r>  -14.7781    1.0000 </r>
       <r>  -14.7766    1.0000 </r>
       <r>  -14.7260    1.0000 </r>
       <r>  -14.5533    1.0000 </r>
       <r>  -14.5520    1.0000 </r>
       <r>  -14.5289    1.0000 </r>
       <r>  -14.1793    1.0000 </r>
       <r>  -14.1784    1.0000 </r>
       <r>  -14.0288    1.0000 </r>
       <r>  -14.0270    1.0000 </r>
       <r>  -13.4732    1.0000 </r>
       <r>  -13.2441    1.0000 </r>
       <r>  -12.8742    1.0000 </r>
       <r>  -12.8725    1.0000 </r>
       <r>  -12.7977    1.0000 </r>
       <r>  -12.7846    1.0000 </r>
       <r>  -12.7827    1.0000 </r>
       <r>  -12.7238    1.0000 </r>
       <r>  -12.2307    1.0000 </r>
       <r>  -12.1917    1.0000 </r>
       <r>  -12.1901    1.0000 </r>
       <r>  -12.0318    1.0000 </r>
       <r>  -11.9913    1.0000 </r>
       <r>  -11.7034    1.0000 </r>
       <r>  -11.7014    1.0000 </r>
       <r>  -11.5756    1.0000 </r>
       <r>  -11.5707    1.0000 </r>
       <r>  -11.5544    1.0000 </r>
       <r>  -11.3412    1.0000 </r>
       <r>  -11.3384    1.0000 </r>
       <r>  -11.3364    1.0000 </r>
       <r>  -11.2548    1.0000 </r>
       <r>  -11.1477    1.0000 </r>
       <r>  -11.1046    1.0000 </r>
       <r>  -11.1032    1.0000 </r>
       <r>  -10.8425    1.0000 </r>
       <r>  -10.8404    1.0000 </r>
       <r>  -10.6965    1.0000 </r>
       <r>  -10.6946    1.0000 </r>
       <r>  -10.6448    1.0000 </r>
       <r>  -10.4313    1.0000 </r>
       <r>  -10.4245    1.0000 </r>
       <r>  -10.3886    1.0000 </r>
       <r>  -10.3784    1.0000 </r>
       <r>  -10.3068    1.0000 </r>
       <r>  -10.3055    1.0000 </r>
       <r>  -10.1802    1.0000 </r>
       <r>  -10.1791    1.0000 </r>
       <r>  -10.1767    1.0000 </r>
       <r>  -10.0493    1.0000 </r>
       <r>   -9.9902    1.0000 </r>
       <r>   -9.9893    1.0000 </r>
       <r>   -9.9503    1.0000 </r>
       <r>   -9.9452    1.0000 </r>
       <r>   -9.9007    1.0000 </r>
       <r>   -9.7709    1.0000 </r>
       <r>   -9.7618    1.0000 </r>
       <r>   -9.6111    1.0000 </r>
       <r>   -9.5289    1.0000 </r>
       <r>   -9.5278    1.0000 </r>
       <r>   -9.5075    1.0000 </r>
       <r>   -9.5013    1.0000 </r>
       <r>   -9.4996    1.0000 </r>
       <r>   -9.4276    1.0000 </r>
       <r>   -9.3438    1.0000 </r>
       <r>   -9.3376    1.0000 </r>
       <r>   -9.3347    1.0000 </r>
       <r>   -9.2780    1.0000 </r>
       <r>   -9.2778    1.0000 </r>
       <r>   -9.2280    1.0000 </r>
       <r>   -9.2183    1.0000 </r>
       <r>   -9.1727    1.0000 </r>
       <r>   -9.1517    1.0000 </r>
       <r>   -9.1499    1.0000 </r>
       <r>   -8.7075    1.0000 </r>
       <r>   -8.7047    1.0000 </r>
       <r>   -8.7039    1.0000 </r>
       <r>   -8.6744    1.0000 </r>
       <r>   -8.6739    1.0000 </r>
       <r>   -8.6677    1.0000 </r>
       <r>   -8.6598    1.0000 </r>
       <r>   -8.6373    1.0000 </r>
       <r>   -8.6362    1.0000 </r>
       <r>   -8.6113    1.0000 </r>
       <r>   -8.5774    1.0000 </r>
       <r>   -8.4150    1.0000 </r>
       <r>   -8.4140    1.0000 </r>
       <r>   -8.3499    1.0000 </r>
       <r>   -8.2403    1.0000 </r>
       <r>   -8.2365    1.0000 </r>
       <r>   -8.1674    1.0000 </r>
       <r>   -8.1657    1.0000 </r>
       <r>   -7.9720    1.0000 </r>
       <r>   -7.9700    1.0000 </r>
       <r>   -7.9312    1.0000 </r>
       <r>   -7.8651    1.0000 </r>
       <r>   -7.8628    1.0000 </r>
       <r>   -7.8623    1.0000 </r>
       <r>   -7.1369    1.0000 </r>
       <r>   -7.1348    1.0000 </r>
       <r>   -7.0634    1.0000 </r>
       <r>   -7.0614    1.0000 </r>
       <r>   -6.9756    1.0000 </r>
       <r>   -6.9331    1.0000 </r>
       <r>   -6.9299    1.0000 </r>
       <r>   -6.8578    1.0000 </r>
       <r>   -6.8543    1.0000 </r>
       <r>   -6.8520    1.0000 </r>
       <r>   -5.7159    1.0000 </r>
       <r>   -5.6947    1.0000 </r>
       <r>   -5.6932    1.0000 </r>
       <r>   -5.5283    1.0000 </r>
       <r>   -5.5229    1.0000 </r>
       <r>   -5.5204    1.0000 </r>
       <r>   -5.3777    1.0000 </r>
       <r>   -5.3735    1.0000 </r>
       <r>   -5.3723    1.0000 </r>
       <r>   -5.1068    1.0000 </r>
       <r>   -5.0912    1.0000 </r>
       <r>   -5.0903    1.0000 </r>
       <r>   -5.0107    1.0000 </r>
       <r>   -4.8569    1.0000 </r>
       <r>   -4.1701    1.0000 </r>
       <r>   -4.1676    1.0000 </r>
       <r>   -4.0262    1.0000 </r>
       <r>   -4.0226    1.0000 </r>
       <r>   -2.0633    0.0000 </r>
       <r>   -2.0545    0.0000 </r>
       <r>   -2.0535    0.0000 </r>
       <r>   -2.0039    0.0000 </r>
       <r>   -2.0029    0.0000 </r>
       <r>   -1.9999    0.0000 </r>
       <r>   -0.9951    0.0000 </r>
       <r>   -0.9936    0.0000 </r>
       <r>   -0.9872    0.0000 </r>
       <r>   -0.4760    0.0000 </r>
       <r>   -0.4701    0.0000 </r>
       <r>   -0.4691    0.0000 </r>
       <r>   -0.3883    0.0000 </r>
       <r>   -0.2820    0.0000 </r>
       <r>   -0.1950    0.0000 </r>
       <r>   -0.1940    0.0000 </r>
       <r>   -0.0941    0.0000 </r>
       <r>   -0.0930    0.0000 </r>
       <r>   -0.0412    0.0000 </r>
       <r>   -0.0404    0.0000 </r>
       <r>   -0.0373    0.0000 </r>
       <r>    0.0440    0.0000 </r>
       <r>    0.0484    0.0000 </r>
       <r>    0.1059    0.0000 </r>
       <r>    0.1328    0.0000 </r>
       <r>    0.1363    0.0000 </r>
       <r>    0.2527    0.0000 </r>
       <r>    0.2567    0.0000 </r>
       <r>    0.3121    0.0000 </r>
       <r>    0.3719    0.0000 </r>
       <r>    0.3738    0.0000 </r>
       <r>    0.3945    0.0000 </r>
       <r>    0.4303    0.0000 </r>
       <r>    0.4319    0.0000 </r>
       <r>    0.5290    0.0000 </r>
       <r>    0.5296    0.0000 </r>
       <r>    0.5309    0.0000 </r>
       <r>    0.5688    0.0000 </r>
       <r>    0.5778    0.0000 </r>
       <r>    0.6183    0.0000 </r>
       <r>    0.6211    0.0000 </r>
       <r>    0.6480    0.0000 </r>
       <r>    0.7000    0.0000 </r>
       <r>    0.7014    0.0000 </r>
       <r>    0.7539    0.0000 </r>
       <r>    0.8283    0.0000 </r>
       <r>    0.8334    0.0000 </r>
       <r>    0.8394    0.0000 </r>
       <r>    0.8937    0.0000 </r>
       <r>    0.8961    0.0000 </r>
       <r>    0.8977    0.0000 </r>
       <r>    0.9158    0.0000 </r>
       <r>    0.9599    0.0000 </r>
       <r>    0.9642    0.0000 </r>
       <r>    0.9786    0.0000 </r>
       <r>    0.9795    0.0000 </r>
       <r>    0.9804    0.0000 </r>
       <r>    0.9956    0.0000 </r>
       <r>    1.0278    0.0000 </r>
       <r>    1.1117    0.0000 </r>
       <r>    1.1132    0.0000 </r>
       <r>    1.1368    0.0000 </r>
       <r>    1.1405    0.0000 </r>
       <r>    1.1658    0.0000 </r>
       <r>    1.1904    0.0000 </r>
       <r>    1.2141    0.0000 </r>
       <r>    1.2271    0.0000 </r>
       <r>    1.2311    0.0000 </r>
       <r>    1.2775    0.0000 </r>
       <r>    1.2814    0.0000 </r>
       <r>    1.2985    0.0000 </r>
       <r>    1.3072    0.0000 </r>
       <r>    1.3115    0.0000 </r>
       <r>    1.3397    0.0000 </r>
       <r>    1.3508    0.0000 </r>
       <r>    1.3540    0.0000 </r>
       <r>    1.3767    0.0000 </r>
       <r>    1.3930    0.0000 </r>
       <r>    1.4449    0.0000 </r>
      </set>
      <set comment="kpoint 2">
       <r>  -23.4736    1.0000 </r>
       <r>  -23.4668    1.0000 </r>
       <r>  -23.4647    1.0000 </r>
       <r>  -23.1787    1.0000 </r>
       <r>  -23.0866    1.0000 </r>
       <r>  -23.0472    1.0000 </r>
       <r>  -23.0452    1.0000 </r>
       <r>  -22.8696    1.0000 </r>
       <r>  -22.8658    1.0000 </r>
       <r>  -22.8432    1.0000 </r>
       <r>  -22.7444    1.0000 </r>
       <r>  -22.7419    1.0000 </r>
       <r>  -20.8034    1.0000 </r>
       <r>  -20.8015    1.0000 </r>
       <r>  -20.8000    1.0000 </r>
       <r>  -20.3667    1.0000 </r>
       <r>  -20.2566    1.0000 </r>
       <r>  -19.9758    1.0000 </r>
       <r>  -19.9742    1.0000 </r>
       <r>  -19.8906    1.0000 </r>
       <r>  -19.8885    1.0000 </r>
       <r>  -19.6073    1.0000 </r>
       <r>  -19.4060    1.0000 </r>
       <r>  -19.0985    1.0000 </r>
       <r>  -19.0976    1.0000 </r>
       <r>  -18.7665    1.0000 </r>
       <r>  -18.5149    1.0000 </r>
       <r>  -18.5134    1.0000 </r>
       <r>  -18.4821    1.0000 </r>
       <r>  -17.8820    1.0000 </r>
       <r>  -17.8809    1.0000 </r>
       <r>  -17.7414    1.0000 </r>
       <r>  -17.7410    1.0000 </r>
       <r>  -17.3554    1.0000 </r>
       <r>  -17.1002    1.0000 </r>
       <r>  -17.0935    1.0000 </r>
       <r>  -17.0725    1.0000 </r>
       <r>  -16.9625    1.0000 </r>
       <r>  -16.9616    1.0000 </r>
       <r>  -16.8859    1.0000 </r>
       <r>  -16.6255    1.0000 </r>
       <r>  -16.6232    1.0000 </r>
       <r>  -16.1628    1.0000 </r>
       <r>  -16.1234    1.0000 </r>
       <r>  -16.1215    1.0000 </r>
       <r>  -15.2018    1.0000 </r>
       <r>  -15.2003    1.0000 </r>
       <r>  -15.1426    1.0000 </r>
       <r>  -14.7975    1.0000 </r>
       <r>  -14.7956    1.0000 </r>
       <r>  -14.7822    1.0000 </r>
       <r>  -14.7781    1.0000 </r>
       <r>  -14.7766    1.0000 </r>
       <r>  -14.7262    1.0000 </r>
       <r>  -14.5533    1.0000 </r>
       <r>  -14.5520    1.0000 </r>
       <r>  -14.5289    1.0000 </r>
       <r>  -14.1792    1.0000 </r>
       <r>  -14.1782    1.0000 </r>
       <r>  -14.0288    1.0000 </r>
       <r>  -14.0272    1.0000 </r>
       <r>  -13.4728    1.0000 </r>
       <r>  -13.2445    1.0000 </r>
       <r>  -12.8739    1.0000 </r>
       <r>  -12.8724    1.0000 </r>
[...]
       <r>   -18.3236     0.0000    58.0000 </r>
       <r>   -18.2322     0.0000    58.0000 </r>
       <r>   -18.1408     0.0000    58.0000 </r>
       <r>   -18.0495     0.0000    58.0000 </r>
       <r>   -17.9581     0.0000    58.0000 </r>
       <r>   -17.8667    27.0256    60.4694 </r>
       <r>   -17.7753    23.9841    62.8940 </r>
       <r>   -17.6840    30.6114    66.0000 </r>
       <r>   -17.5926     0.0000    66.0000 </r>
       <r>   -17.5012     0.0000    66.0000 </r>
       <r>   -17.4099     0.0000    66.0000 </r>
       <r>   -17.3185    12.3715    67.1304 </r>
       <r>   -17.2271    17.1101    69.1346 </r>
       <r>   -17.1357     5.4039    69.6957 </r>
       <r>   -17.0444    27.5282    72.2826 </r>
       <r>   -16.9530    58.1424    77.6800 </r>
       <r>   -16.8616     5.7870    78.5288 </r>
       <r>   -16.7703    11.4117    79.6775 </r>
       <r>   -16.6789    14.4443    81.1551 </r>
       <r>   -16.5875    29.9025    84.0000 </r>
       <r>   -16.4961     0.0000    84.0000 </r>
       <r>   -16.4048     0.0000    84.0000 </r>
       <r>   -16.3134     0.0000    84.0000 </r>
       <r>   -16.2220     0.0000    84.0000 </r>
       <r>   -16.1306    34.8578    87.1850 </r>
       <r>   -16.0393     0.0000    90.0000 </r>
       <r>   -15.9479     0.0000    90.0000 </r>
       <r>   -15.8565     0.0000    90.0000 </r>
       <r>   -15.7652     0.0000    90.0000 </r>
       <r>   -15.6738     0.0000    90.0000 </r>
       <r>   -15.5824     0.0000    90.0000 </r>
       <r>   -15.4910     0.0000    90.0000 </r>
       <r>   -15.3997     0.0000    90.0000 </r>
       <r>   -15.3083     0.0000    90.0000 </r>
       <r>   -15.2169     0.3544    90.0324 </r>
       <r>   -15.1256    65.2802    95.9972 </r>
       <r>   -15.0342     0.0000    96.0000 </r>
       <r>   -14.9428     0.0000    96.0000 </r>
       <r>   -14.8514     0.0000    96.0000 </r>
       <r>   -14.7601   110.1461   106.0643 </r>
       <r>   -14.6687    10.5319   108.0000 </r>
       <r>   -14.5773     0.0059   108.0005 </r>
       <r>   -14.4859    65.6596   114.0000 </r>
       <r>   -14.3946     0.0000   114.0000 </r>
       <r>   -14.3032     0.0000   114.0000 </r>
       <r>   -14.2118     0.0001   114.0000 </r>
       <r>   -14.1205    40.0991   117.6640 </r>
       <r>   -14.0291    29.7106   120.6538 </r>
       <r>   -13.9377     0.0000   122.0000 </r>
       <r>   -13.8463     0.0000   122.0000 </r>
       <r>   -13.7550     0.0000   122.0000 </r>
       <r>   -13.6636     0.0000   122.0000 </r>
       <r>   -13.5722     0.0000   122.0000 </r>
       <r>   -13.4809     0.3332   122.0304 </r>
       <r>   -13.3895    15.5020   123.6540 </r>
       <r>   -13.2981    12.8482   125.1740 </r>
       <r>   -13.2067     7.9989   126.0000 </r>
       <r>   -13.1154     0.0000   126.0000 </r>
       <r>   -13.0240     0.0000   126.0000 </r>
       <r>   -12.9326     0.0000   126.0000 </r>
       <r>   -12.8412    29.9541   128.7370 </r>
       <r>   -12.7499    89.1785   137.0520 </r>
       <r>   -12.6585     7.2509   138.0000 </r>
       <r>   -12.5671     0.0000   138.0000 </r>
       <r>   -12.4758     0.0000   138.0000 </r>
       <r>   -12.3844     0.0000   138.0000 </r>
       <r>   -12.2930     0.0000   138.0000 </r>
       <r>   -12.2016    34.6312   141.1643 </r>
       <r>   -12.1103     1.7289   144.0000 </r>
       <r>   -12.0189    19.6590   145.7963 </r>
       <r>   -11.9275    21.8862   148.0000 </r>
       <r>   -11.8362     0.0000   148.0000 </r>
       <r>   -11.7448     0.0000   148.0000 </r>
       <r>   -11.6534    43.7770   152.0000 </r>
       <r>   -11.5620    42.2102   155.8568 </r>
       <r>   -11.4707    20.0069   157.9986 </r>
       <r>   -11.3793    15.1118   159.3808 </r>
       <r>   -11.2879    46.9008   163.8531 </r>
       <r>   -11.1966    21.8885   166.0000 </r>
       <r>   -11.1052    54.5557   170.9849 </r>
       <r>   -11.0138     0.0000   172.0000 </r>
       <r>   -10.9224     0.0000   172.0000 </r>
       <r>   -10.8311    13.0549   173.1929 </r>
       <r>   -10.7397    34.3548   177.3824 </r>
       <r>   -10.6483    24.5099   180.0508 </r>
       <r>   -10.5569    13.8119   181.4971 </r>
       <r>   -10.4656    13.3076   183.1526 </r>
       <r>   -10.3742    39.8358   186.9761 </r>
       <r>   -10.2828    67.5291   193.9976 </r>
       <r>   -10.1915    21.2216   195.9391 </r>
       <r>   -10.1001    25.1940   199.9529 </r>
       <r>   -10.0087    31.8252   202.9079 </r>
       <r>    -9.9173    61.0835   210.0015 </r>
       <r>    -9.8260    21.8716   212.0000 </r>
       <r>    -9.7346    43.7760   215.9999 </r>
       <r>    -9.6432     0.0000   216.0000 </r>
       <r>    -9.5519    26.5452   218.4255 </r>
       <r>    -9.4605    96.9478   228.0000 </r>
       <r>    -9.3691    36.8031   231.3628 </r>
       <r>    -9.2777    77.8292   238.7153 </r>
       <r>    -9.1864    44.6381   244.0787 </r>
       <r>    -9.0950    64.7619   250.0000 </r>
       <r>    -9.0036     0.0000   250.0000 </r>
       <r>    -8.9122     0.0000   250.0000 </r>
       <r>    -8.8209     0.0000   250.0000 </r>
       <r>    -8.7295     0.0333   250.0030 </r>
       <r>    -8.6381   173.7432   265.8783 </r>
       <r>    -8.5468    43.7737   272.0000 </r>
       <r>    -8.4554     0.0000   272.0000 </r>
       <r>    -8.3640    48.4253   276.4247 </r>
       <r>    -8.2726     4.6639   278.0066 </r>
       <r>    -8.1813    44.1737   282.0428 </r>
       <r>    -8.0899    43.3084   286.0000 </r>
       <r>    -7.9985     0.1265   286.0116 </r>
       <r>    -7.9072    65.4506   291.9919 </r>
       <r>    -7.8158    65.6655   298.0000 </r>
       <r>    -7.7244     0.0000   298.0000 </r>
       <r>    -7.6330     0.0000   298.0000 </r>
       <r>    -7.5417     0.0000   298.0000 </r>
       <r>    -7.4503     0.0000   298.0000 </r>
       <r>    -7.3589     0.0000   298.0000 </r>
       <r>    -7.2675     0.0000   298.0000 </r>
       <r>    -7.1762     0.0000   298.0000 </r>
       <r>    -7.0848    43.8257   302.0044 </r>
       <r>    -6.9934    43.7509   306.0021 </r>
       <r>    -6.9021    65.6423   311.9999 </r>
       <r>    -6.8107    65.6655   318.0000 </r>
       <r>    -6.7193     0.0000   318.0000 </r>
       <r>    -6.6279     0.0000   318.0000 </r>
       <r>    -6.5366     0.0000   318.0000 </r>
       <r>    -6.4452     0.0000   318.0000 </r>
       <r>    -6.3538     0.0000   318.0000 </r>
       <r>    -6.2625     0.0000   318.0000 </r>
       <r>    -6.1711     0.0000   318.0000 </r>
       <r>    -6.0797     0.0000   318.0000 </r>
       <r>    -5.9883     0.0000   318.0000 </r>
       <r>    -5.8970     0.0000   318.0000 </r>
       <r>    -5.8056     0.0000   318.0000 </r>
       <r>    -5.7142     7.6623   318.7001 </r>
       <r>    -5.6229    38.2742   324.0000 </r>
       <r>    -5.5315    10.5879   324.9674 </r>
       <r>    -5.4401     0.0000   330.0000 </r>
       <r>    -5.3487    65.6523   335.9988 </r>
       <r>    -5.2574     0.0000   336.0000 </r>
       <r>    -5.1660     0.0000   336.0000 </r>
       <r>    -5.0746    65.3237   341.9688 </r>
       <r>    -4.9832    21.8868   343.9998 </r>
       <r>    -4.8919     0.0000   344.0000 </r>
       <r>    -4.8005    21.8885   346.0000 </r>
       <r>    -4.7091     0.0000   346.0000 </r>
       <r>    -4.6178     0.0000   346.0000 </r>
       <r>    -4.5264     0.0000   346.0000 </r>
       <r>    -4.4350     0.0000   346.0000 </r>
       <r>    -4.3436     0.0000   346.0000 </r>
       <r>    -4.2523     0.0000   346.0000 </r>
       <r>    -4.1609    37.9057   349.4635 </r>
       <r>    -4.0695     0.0000   350.0000 </r>
       <r>    -3.9782    43.7770   354.0000 </r>
       <r>    -3.8868     0.0000   354.0000 </r>
       <r>    -3.7954     0.0000   354.0000 </r>
       <r>    -3.7040     0.0000   354.0000 </r>
       <r>    -3.6127     0.0000   354.0000 </r>
       <r>    -3.5213     0.0000   354.0000 </r>
       <r>    -3.4299     0.0000   354.0000 </r>
       <r>    -3.3385     0.0000   354.0000 </r>
       <r>    -3.2472     0.0000   354.0000 </r>
       <r>    -3.1558     0.0000   354.0000 </r>
       <r>    -3.0644     0.0000   354.0000 </r>
       <r>    -2.9731     0.0000   354.0000 </r>
       <r>    -2.8817     0.0000   354.0000 </r>
       <r>    -2.7903     0.0000   354.0000 </r>
       <r>    -2.6989     0.0000   354.0000 </r>
       <r>    -2.6076     0.0000   354.0000 </r>
       <r>    -2.5162     0.0000   354.0000 </r>
       <r>    -2.4248     0.0000   354.0000 </r>
       <r>    -2.3335     0.0000   354.0000 </r>
       <r>    -2.2421     0.0000   354.0000 </r>
       <r>    -2.1507     0.0000   354.0000 </r>
       <r>    -2.0593    25.2152   356.3040 </r>
       <r>    -1.9680    65.6655   366.0000 </r>
       <r>    -1.8766     0.0000   366.0000 </r>
       <r>    -1.7852     0.0000   366.0000 </r>
       <r>    -1.6938     0.0000   366.0000 </r>
       <r>    -1.6025     0.0000   366.0000 </r>
       <r>    -1.5111     0.0000   366.0000 </r>
       <r>    -1.4197     0.0000   366.0000 </r>
       <r>    -1.3284     0.0000   366.0000 </r>
       <r>    -1.2370     0.0000   366.0000 </r>
       <r>    -1.1456     0.0000   366.0000 </r>
       <r>    -1.0542     0.0000   366.0000 </r>
       <r>    -0.9629    65.6611   371.9996 </r>
       <r>    -0.8715     0.0000   372.0000 </r>
       <r>    -0.7801     0.0000   372.0000 </r>
       <r>    -0.6888     0.0000   372.0000 </r>
       <r>    -0.5974     0.0000   372.0000 </r>
       <r>    -0.5060     0.0001   372.0000 </r>
       <r>    -0.4146    65.6659   378.0000 </r>
       <r>    -0.3233    26.2337   380.3971 </r>
       <r>    -0.2319     9.4326   382.0000 </r>
       <r>    -0.1405    41.0358   385.7495 </r>
       <r>    -0.0492    48.8953   390.4677 </r>
       <r>     0.0422    57.2873   398.7434 </r>
       <r>     0.1336    32.9169   403.0077 </r>
       <r>     0.2250    24.5497   406.5801 </r>
       <r>     0.3163    44.3182   411.6253 </r>
       <r>     0.4077    54.3049   416.8988 </r>
       <r>     0.4991    77.9528   424.5607 </r>
       <r>     0.5905    61.0238   430.4490 </r>
       <r>     0.6818    74.3574   437.4075 </r>
       <r>     0.7732    63.9074   443.8423 </r>
       <r>     0.8646    78.6995   451.5991 </r>
       <r>     0.9559    93.0083   461.3791 </r>
       <r>     1.0473    80.0256   469.9326 </r>
       <r>     1.1387    84.3766   478.4923 </r>
       <r>     1.2301   100.2095   489.1997 </r>
       <r>     1.3214    86.9496   498.7276 </r>
       <r>     1.4128   104.3545   509.3260 </r>
       <r>     1.5042    17.3445   512.0000 </r>
       <r>     1.5955     0.0000   512.0000 </r>
       <r>     1.6869     0.0000   512.0000 </r>
       <r>     1.7783     0.0000   512.0000 </r>
       <r>     1.8697     0.0000   512.0000 </r>
       <r>     1.9610     0.0000   512.0000 </r>
       <r>     2.0524     0.0000   512.0000 </r>
       <r>     2.1438     0.0000   512.0000 </r>
       <r>     2.2352     0.0000   512.0000 </r>
       <r>     2.3265     0.0000   512.0000 </r>
       <r>     2.4179     0.0000   512.0000 </r>
       <r>     2.5093     0.0000   512.0000 </r>
       <r>     2.6006     0.0000   512.0000 </r>
       <r>     2.6920     0.0000   512.0000 </r>
      </set>
     </set>
    </array>
   </total>
  </dos>
 </calculation>
 <structure name="finalpos" >
  <crystal>
   <varray name="basis" >
    <v>      28.88033200      -0.00764065       0.00000000 </v>
    <v>     -14.44714092      24.90505914       0.00000000 </v>
    <v>       0.00000000       0.00000000      20.00000000 </v>
   </varray>
   <i name="volume">  14383.11981513 </i>
   <varray name="rec_basis" >
    <v>       0.03463096       0.02008902       0.00000000 </v>
    <v>       0.00001062       0.04015865       0.00000000 </v>
    <v>       0.00000000       0.00000000       0.05000000 </v>
   </varray>
  </crystal>
  <varray name="positions" >
   <v>       0.26864733       0.56697466       0.54264253 </v>
   <v>       0.43134042       0.70030043       0.54347711 </v>
   <v>       0.29871428       0.73002859       0.54233555 </v>
   <v>       0.38553199       0.79798615       0.52998558 </v>
   <v>       0.41211975       0.61326856       0.53001839 </v>
   <v>       0.20108318       0.58622239       0.52842139 </v>
   <v>       0.71160356       0.43412599       0.47583898 </v>
   <v>       0.56656513       0.27897257       0.47862034 </v>
   <v>       0.72100896       0.28882274       0.47604121 </v>
   <v>       0.64165205       0.20692062       0.48501223 </v>
   <v>       0.56438748       0.35846048       0.48461348 </v>
   <v>       0.79347436       0.43651067       0.48104602 </v>
   <v>       0.53778909       0.86489314       0.63439745 </v>
   <v>       0.51966189       0.90990167       0.67129131 </v>
   <v>       0.46951131       0.84226823       0.65128329 </v>
   <v>       0.58355587       0.11527461       0.65037452 </v>
   <v>       0.60934346       0.17759392       0.60614744 </v>
   <v>       0.54263398       0.14425053       0.63570474 </v>
   <v>       0.53728210       0.19096753       0.44756780 </v>
   <v>       0.54823229       0.19724807       0.53516750 </v>
   <v>       0.32679292       0.46041046       0.63459764 </v>
   <v>       0.39017451       0.47928891       0.67102143 </v>
   <v>       0.37234659       0.52906591       0.65116051 </v>
   <v>       0.53187740       0.41693338       0.64925758 </v>
   <v>       0.56789383       0.39095549       0.60481358 </v>
   <v>       0.60169482       0.45804889       0.63365587 </v>
   <v>       0.65244470       0.46285532       0.44492172 </v>
   <v>       0.64887524       0.45311264       0.53273680 </v>
   <v>       0.13474167       0.67244577       0.63251635 </v>
   <v>       0.08940809       0.60901616       0.66890651 </v>
   <v>       0.15681380       0.62625937       0.64926365 </v>
   <v>       0.88394882       0.46894004       0.64604150 </v>
   <v>       0.82207152       0.43260979       0.60122419 </v>
   <v>       0.85483111       0.39881287       0.63113011 </v>
   <v>       0.80865866       0.34800466       0.44166756 </v>
   <v>       0.80277947       0.35133149       0.52955319 </v>
   <v>       0.46212907       0.85414746       0.40714836 </v>
   <v>       0.49727878       0.02668134       0.33032982 </v>
   <v>       0.47443635       0.93138988       0.33759169 </v>
   <v>       0.52615487       0.11424149       0.38679440 </v>
   <v>       0.46068739       0.78296282       0.47195689 </v>
   <v>       0.48229056       0.79267435       0.55650527 </v>
   <v>       0.39070766       0.53632913       0.40692803 </v>
   <v>       0.52800754       0.50228996       0.32911502 </v>
   <v>       0.45541328       0.52443572       0.33688639 </v>
   <v>       0.58697006       0.47397775       0.38515005 </v>
   <v>       0.32152514       0.53775020       0.47221357 </v>
   <v>       0.30983554       0.51612026       0.55678830 </v>
   <v>       0.14588281       0.60780523       0.40506434 </v>
   <v>       0.97354266       0.47174566       0.32658194 </v>
   <v>       0.06891743       0.54350845       0.33482955 </v>
   <v>       0.88579320       0.41340762       0.38222065 </v>
   <v>       0.21695680       0.67706064       0.47056528 </v>
   <v>       0.20694371       0.68886409       0.55503317 </v>
   <v>       0.40335684       0.77673912       0.54377708 </v>
   <v>       0.37303332       0.59536673       0.54374055 </v>
   <v>       0.22233475       0.62537837       0.54244908 </v>
   <v>       0.61747531       0.22222970       0.47558509 </v>
   <v>       0.60386680       0.38272027       0.47488787 </v>
   <v>       0.77772401       0.39670519       0.47257069 </v>
   <v>       0.51678013       0.94825720       0.56175131 </v>
   <v>       0.54386973       0.05512335       0.55303499 </v>
   <v>       0.43072682       0.48203026       0.56106283 </v>
   <v>       0.51055772       0.45567060       0.55182447 </v>
   <v>       0.05144426       0.56854218       0.55892294 </v>
   <v>       0.94455787       0.48918903       0.54928323 </v>
   <v>       0.36895711       0.72136829       0.54327283 </v>
   <v>       0.31323030       0.70162968       0.54278808 </v>
   <v>       0.27750879       0.64625738       0.54268997 </v>
   <v>       0.29703667       0.61004431       0.54292546 </v>
   <v>       0.35223794       0.62974829       0.54332964 </v>
   <v>       0.38843887       0.68566809       0.54338932 </v>
   <v>       0.64111635       0.27764386       0.47773571 </v>
   <v>       0.69759017       0.30895360       0.47715089 </v>
   <v>       0.72253954       0.36503478       0.47617946 </v>
   <v>       0.69146015       0.39040925       0.47698045 </v>
   <v>       0.63553952       0.35921097       0.47740699 </v>
   <v>       0.61015893       0.30255666       0.47850296 </v>
   <v>       0.50171764       0.89652753       0.56720020 </v>
   <v>       0.52607094       0.02392954       0.49776196 </v>
   <v>       0.54821486       0.12905373       0.49046057 </v>
   <v>       0.55483387       0.10581537       0.55018469 </v>
   <v>       0.50735971       0.87727811       0.63504945 </v>
   <v>       0.57398841       0.13770128       0.61407616 </v>
   <v>       0.56078934       0.18652528       0.48803384 </v>
   <v>       0.39416273       0.49695601       0.56687185 </v>
   <v>       0.49694267       0.47326753       0.49664102 </v>
   <v>       0.58006363       0.45193065       0.48881645 </v>
   <v>       0.55039357       0.44513854       0.54873020 </v>
   <v>       0.36958655       0.49125127       0.63492153 </v>
   <v>       0.56354835       0.42639426       0.61256382 </v>
   <v>       0.62499267       0.43970553       0.48607787 </v>
   <v>       0.10312805       0.60482733       0.56484870 </v>
   <v>       0.97589778       0.50271118       0.49422224 </v>
   <v>       0.87069602       0.42029403       0.48586256 </v>
   <v>       0.89382341       0.44979103       0.54590706 </v>
   <v>       0.12213353       0.62942396       0.63291442 </v>
   <v>       0.86170857       0.43697314       0.60952171 </v>
   <v>       0.81332097       0.37544450       0.48304761 </v>
   <v>       0.48090561       0.86031458       0.51192733 </v>
   <v>       0.51224222       0.96793330       0.50219553 </v>
   <v>       0.49321661       0.93538326       0.44360140 </v>
   <v>       0.47770237       0.88069359       0.45061665 </v>
   <v>       0.53110541       0.09755291       0.43357764 </v>
   <v>       0.51952355       0.04378614       0.43519169 </v>
   <v>       0.50130022       0.00987734       0.37746325 </v>
   <v>       0.48874410       0.95746871       0.38147483 </v>
   <v>       0.45852932       0.80077979       0.52017037 </v>
   <v>       0.37859048       0.51766938       0.51177730 </v>
   <v>       0.45473692       0.48672355       0.50136162 </v>
   <v>       0.44099073       0.50560386       0.44292076 </v>
   <v>       0.40185256       0.52087036       0.45027423 </v>
   <v>       0.56544642       0.46884721       0.43204707 </v>
   <v>       0.52318989       0.48003299       0.43394212 </v>
   <v>       0.50727873       0.49806807       0.37635298 </v>
   <v>       0.46735453       0.51024388       0.38063774 </v>
   <v>       0.34162895       0.53999032       0.52030560 </v>
   <v>       0.13947161       0.62010379       0.50987253 </v>
   <v>       0.03189687       0.54456952       0.49917640 </v>
   <v>       0.06459732       0.55805858       0.44083596 </v>
   <v>       0.11925702       0.59685540       0.44835283 </v>
   <v>       0.90236499       0.43478076       0.42922563 </v>
   <v>       0.95616968       0.47667723       0.43137561 </v>
   <v>       0.99023911       0.49233287       0.37391310 </v>
   <v>       0.04267595       0.53182323       0.37845872 </v>
   <v>       0.19884519       0.65694165       0.51861760 </v>
  </varray>
 </structure>
</modeling>
