<?xml version="1.0" encoding="ISO-8859-1"?>
<modeling>
 <generator>
  <i name="program" type="string">vasp </i>
  <i name="version" type="string">5.4.4.18Apr17-6-g9f103f2a35  </i>
  <i name="subversion" type="string">(build Jun 07 2020 16:50:00) complex            parallel </i>
  <i name="platform" type="string">LinuxIFC </i>
  <i name="date" type="string">2023 02 22 </i>
  <i name="time" type="string">01:15:26 </i>
 </generator>
 <incar>
  <i type="string" name="SYSTEM">Simulation for cell shape cell volume r</i>
  <i type="int" name="ISTART">     1</i>
  <i type="string" name="PREC">high</i>
  <i type="string" name="ALGO">48</i>
  <i type="int" name="ICHARG">    11</i>
  <i type="int" name="NELM">   200</i>
  <i type="int" name="IBRION">    -1</i>
  <i name="EDIFF">      0.00001000</i>
  <i name="EDIFFG">     -0.01000000</i>
  <i type="int" name="NSW">     0</i>
  <i type="int" name="ISIF">     2</i>
  <i name="ENCUT">    500.00000000</i>
  <i name="POTIM">      0.30000000</i>
  <i type="string" name="LREAL">A</i>
  <i type="int" name="ISMEAR">     0</i>
  <i name="SIGMA">      0.01000000</i>
  <i type="int" name="NWRITE">     0</i>
  <i type="logical" name="LWAVE"> F  </i>
  <i type="logical" name="LCHARG"> F  </i>
  <v type="int" name="KPOINT_BSE">    -1     0     0     0</v>
  <i type="int" name="NELM">   200</i>
  <i type="string" name="GGA">PE</i>
 </incar>
 <structure name="primitive_cell" >
  <crystal>
   <varray name="basis" >
    <v>      24.40465138      -0.09731266       0.00000000 </v>
    <v>     -12.29019735      21.41594140       0.00000000 </v>
    <v>       0.00000000       0.00000000      20.00000000 </v>
   </varray>
   <i name="volume">  10429.05183957 </i>
   <varray name="rec_basis" >
    <v>       0.04106978       0.02356916       0.00000000 </v>
    <v>       0.00018662       0.04680129       0.00000000 </v>
    <v>       0.00000000       0.00000000       0.05000000 </v>
   </varray>
  </crystal>
  <varray name="positions" >
   <v>       0.12968139      -0.40719256       0.39592321 </v>
   <v>       0.15428131      -0.42121878       0.43115410 </v>
   <v>       0.22014311      -0.38977098       0.42980224 </v>
   <v>       0.11973329      -0.47199019       0.47462825 </v>
   <v>       0.04075154      -0.40157693       0.40330526 </v>
   <v>       0.07702063      -0.38326535       0.48323883 </v>
   <v>       0.24613026      -0.35103559       0.39516182 </v>
   <v>       0.03253317      -0.41361997       0.45678798 </v>
   <v>       0.04973437       0.49220332       0.47713308 </v>
   <v>       0.00971276      -0.48195536       0.46815344 </v>
   <v>       0.25373732      -0.40789682       0.47250692 </v>
   <v>       0.15402804      -0.49059440      -0.48387868 </v>
   <v>      -0.00422934      -0.40364032       0.47373835 </v>
   <v>       0.21974913      -0.45904090      -0.48436943 </v>
   <v>       0.02402301       0.43072589       0.49039368 </v>
   <v>      -0.05312215       0.48102405       0.47173923 </v>
   <v>       0.12776654       0.46960467      -0.45060060 </v>
   <v>       0.28827659      -0.30091281      -0.46337795 </v>
   <v>       0.32084096      -0.37525405       0.47197830 </v>
   <v>       0.33181408      -0.27550110      -0.49227940 </v>
   <v>       0.24549636      -0.47350418      -0.45112605 </v>
   <v>      -0.03881756       0.39373756       0.49434151 </v>
   <v>       0.35444730      -0.30911478       0.47140596 </v>
   <v>       0.28546283      -0.48280754       0.40799628 </v>
   <v>      -0.07888449       0.41945764       0.48475131 </v>
   <v>       0.35327955      -0.40928743       0.47226502 </v>
   <v>       0.32948491      -0.46533917       0.43594756 </v>
   <v>       0.36475220      -0.21053078      -0.49277831 </v>
   <v>       0.41102341      -0.27556521       0.43504470 </v>
   <v>      -0.15593337       0.44242952       0.41137586 </v>
   <v>       0.34765027      -0.18481817      -0.46338046 </v>
   <v>      -0.02453870       0.31557007       0.49074466 </v>
   <v>      -0.06154143       0.32555669      -0.49323235 </v>
   <v>      -0.14896305       0.38354215       0.48630875 </v>
   <v>       0.42958972      -0.30086370       0.40725781 </v>
   <v>       0.42105562      -0.17641271       0.47032027 </v>
   <v>      -0.18267635       0.40248957       0.44433579 </v>
   <v>       0.44355343      -0.21044229       0.43471971 </v>
   <v>      -0.10579498       0.29477802       0.48012108 </v>
   <v>      -0.07013824       0.31404761      -0.43964445 </v>
   <v>       0.40944282      -0.38818732      -0.49080157 </v>
   <v>       0.36157902      -0.49864433       0.43578488 </v>
   <v>       0.42799229      -0.34517399      -0.46174743 </v>
   <v>       0.44601738      -0.13350687       0.33629484 </v>
   <v>       0.34134737       0.45755390       0.40799671 </v>
   <v>      -0.18423602       0.33244432      -0.47080286 </v>
   <v>       0.48786175      -0.18594025       0.40701056 </v>
   <v>      -0.16024113       0.31791609      -0.43534416 </v>
   <v>       0.45501472      -0.10719436       0.47289480 </v>
   <v>      -0.24839575       0.37118603       0.44399192 </v>
   <v>       0.44097446      -0.42192485      -0.49111274 </v>
   <v>       0.41826049      -0.47745805       0.47160780 </v>
   <v>       0.48925957      -0.08953365       0.34858169 </v>
   <v>       0.45347787      -0.08234648      -0.46767826 </v>
   <v>      -0.27360568       0.38601389       0.41040669 </v>
   <v>       0.48694685      -0.06722318       0.41801695 </v>
   <v>      -0.25012676       0.30124546      -0.47026369 </v>
   <v>      -0.47050537      -0.09758419       0.34265773 </v>
   <v>       0.43807998      -0.49870593       0.33751409 </v>
   <v>       0.49590144      -0.05315263       0.31269937 </v>
   <v>      -0.28308917       0.31990582       0.48674399 </v>
   <v>       0.48383837      -0.40593605      -0.46142668 </v>
   <v>       0.39025860       0.41864401       0.34036532 </v>
   <v>       0.48242920      -0.02026205      -0.45987854 </v>
   <v>       0.45315274       0.48788461       0.47361341 </v>
   <v>      -0.48414805      -0.00511727       0.42577729 </v>
   <v>       0.43867353       0.45798483       0.34814056 </v>
   <v>      -0.27659904       0.26229962      -0.43598811 </v>
   <v>      -0.31424129       0.39521045      -0.44903352 </v>
   <v>       0.47395500      -0.03433411      -0.35454480 </v>
   <v>      -0.48567836       0.01970753       0.48522875 </v>
   <v>       0.46184244       0.45747560       0.41777488 </v>
   <v>       0.44011924       0.00998023      -0.38413544 </v>
   <v>      -0.31802414       0.21307269       0.42230729 </v>
   <v>       0.48038217       0.00202634      -0.39035094 </v>
   <v>      -0.35022137       0.28775912       0.48656321 </v>
   <v>       0.47847624       0.48723256      -0.46679575 </v>
   <v>       0.46948764       0.45249841       0.31220144 </v>
   <v>      -0.35804635       0.37825367      -0.47726325 </v>
   <v>      -0.38213143       0.32227849       0.48622614 </v>
   <v>      -0.36175457       0.18779241       0.45094010 </v>
   <v>      -0.36905670       0.45584341      -0.44930095 </v>
   <v>      -0.38428540       0.22160665       0.48704828 </v>
   <v>      -0.47635270       0.04603472      -0.37822122 </v>
   <v>      -0.38956220       0.41212142      -0.47725128 </v>
   <v>       0.48168556       0.09874426      -0.44904853 </v>
   <v>      -0.45151395       0.08892302       0.48793700 </v>
   <v>       0.49443394       0.42751840       0.42478317 </v>
   <v>      -0.48890478       0.45730148      -0.45978443 </v>
   <v>      -0.47389299       0.12312353      -0.47659525 </v>
   <v>      -0.43804799       0.30177610       0.44901512 </v>
   <v>      -0.49602092       0.46298220      -0.35421675 </v>
   <v>      -0.48039630       0.42670800       0.48443540 </v>
   <v>      -0.37792005       0.09699875       0.42211154 </v>
   <v>      -0.39499394       0.12283330       0.45133256 </v>
   <v>      -0.45683283       0.25882083       0.41981722 </v>
   <v>      -0.44597397       0.39157291       0.48659137 </v>
   <v>      -0.46556196       0.45696681      -0.39018398 </v>
   <v>      -0.44106339       0.18825920      -0.47685100 </v>
   <v>      -0.46900657       0.33605837       0.44918511 </v>
   <v>      -0.45953296       0.21370013      -0.44918524 </v>
   <v>      -0.41694719       0.49603425      -0.38271019 </v>
   <v>       0.48834040       0.32053084       0.41925721 </v>
   <v>      -0.46538724       0.41348319      -0.37932816 </v>
  </varray>
 </structure>
 <varray name="primitive_index" >
  <v type="int" >        1 </v>
  <v type="int" >       60 </v>
  <v type="int" >       59 </v>
  <v type="int" >       61 </v>
  <v type="int" >       25 </v>
  <v type="int" >       27 </v>
  <v type="int" >        2 </v>
  <v type="int" >       89 </v>
  <v type="int" >       87 </v>
  <v type="int" >       88 </v>
  <v type="int" >       51 </v>
  <v type="int" >       62 </v>
  <v type="int" >       26 </v>
  <v type="int" >       63 </v>
  <v type="int" >       48 </v>
  <v type="int" >       45 </v>
  <v type="int" >        4 </v>
  <v type="int" >        5 </v>
  <v type="int" >       43 </v>
  <v type="int" >       54 </v>
  <v type="int" >        3 </v>
  <v type="int" >       97 </v>
  <v type="int" >       53 </v>
  <v type="int" >        7 </v>
  <v type="int" >       98 </v>
  <v type="int" >       52 </v>
  <v type="int" >       64 </v>
  <v type="int" >       55 </v>
  <v type="int" >       58 </v>
  <v type="int" >       16 </v>
  <v type="int" >        6 </v>
  <v type="int" >       36 </v>
  <v type="int" >       96 </v>
  <v type="int" >       79 </v>
  <v type="int" >       11 </v>
  <v type="int" >       56 </v>
  <v type="int" >       80 </v>
  <v type="int" >       57 </v>
  <v type="int" >       35 </v>
  <v type="int" >       34 </v>
  <v type="int" >       68 </v>
  <v type="int" >       65 </v>
  <v type="int" >       10 </v>
  <v type="int" >       31 </v>
  <v type="int" >        8 </v>
  <v type="int" >       78 </v>
  <v type="int" >       12 </v>
  <v type="int" >       13 </v>
  <v type="int" >       93 </v>
  <v type="int" >       81 </v>
  <v type="int" >       67 </v>
  <v type="int" >       66 </v>
  <v type="int" >       95 </v>
  <v type="int" >       50 </v>
  <v type="int" >       15 </v>
  <v type="int" >       94 </v>
  <v type="int" >       77 </v>
  <v type="int" >       33 </v>
  <v type="int" >       28 </v>
  <v type="int" >       32 </v>
  <v type="int" >       69 </v>
  <v type="int" >        9 </v>
  <v type="int" >       30 </v>
  <v type="int" >      103 </v>
  <v type="int" >       90 </v>
  <v type="int" >       47 </v>
  <v type="int" >       92 </v>
  <v type="int" >       14 </v>
  <v type="int" >       19 </v>
  <v type="int" >       40 </v>
  <v type="int" >      104 </v>
  <v type="int" >       91 </v>
  <v type="int" >       42 </v>
  <v type="int" >       17 </v>
  <v type="int" >      102 </v>
  <v type="int" >       44 </v>
  <v type="int" >       49 </v>
  <v type="int" >       29 </v>
  <v type="int" >       82 </v>
  <v type="int" >       70 </v>
  <v type="int" >       72 </v>
  <v type="int" >       20 </v>
  <v type="int" >       71 </v>
  <v type="int" >       41 </v>
  <v type="int" >       83 </v>
  <v type="int" >       24 </v>
  <v type="int" >       74 </v>
  <v type="int" >       46 </v>
  <v type="int" >      100 </v>
  <v type="int" >       75 </v>
  <v type="int" >       86 </v>
  <v type="int" >       37 </v>
  <v type="int" >      101 </v>
  <v type="int" >       18 </v>
  <v type="int" >       73 </v>
  <v type="int" >       22 </v>
  <v type="int" >       84 </v>
  <v type="int" >       99 </v>
  <v type="int" >       76 </v>
  <v type="int" >       85 </v>
  <v type="int" >       23 </v>
  <v type="int" >       39 </v>
  <v type="int" >       21 </v>
  <v type="int" >       38 </v>
 </varray>
 <kpoints>
  <generation param="listgenerated">
   <i name="divisions" type="int">      20 </i>
   <v>       0.00000000       0.00000000       0.00000000 </v>
   <v>       0.50000000      -0.50000000       0.00000000 </v>
   <v>       0.66304115      -0.32913097       0.00000000 </v>
   <v>       0.50000000       0.00000000       0.00000000 </v>
   <v>       0.33695885       0.32913097       0.00000000 </v>
   <v>       0.00000000       0.50000000       0.00000000 </v>
   <v>       0.00000000       0.00000000       0.00000000 </v>
  </generation>
  <varray name="kpointlist" >
   <v>       0.00000000       0.00000000       0.00000000 </v>
   <v>       0.02631579      -0.02631579       0.00000000 </v>
   <v>       0.05263158      -0.05263158       0.00000000 </v>
   <v>       0.07894737      -0.07894737       0.00000000 </v>
   <v>       0.10526316      -0.10526316       0.00000000 </v>
   <v>       0.13157895      -0.13157895       0.00000000 </v>
   <v>       0.15789474      -0.15789474       0.00000000 </v>
   <v>       0.18421053      -0.18421053       0.00000000 </v>
   <v>       0.21052632      -0.21052632       0.00000000 </v>
   <v>       0.23684211      -0.23684211       0.00000000 </v>
   <v>       0.26315789      -0.26315789       0.00000000 </v>
   <v>       0.28947368      -0.28947368       0.00000000 </v>
   <v>       0.31578947      -0.31578947       0.00000000 </v>
   <v>       0.34210526      -0.34210526       0.00000000 </v>
   <v>       0.36842105      -0.36842105       0.00000000 </v>
   <v>       0.39473684      -0.39473684       0.00000000 </v>
   <v>       0.42105263      -0.42105263       0.00000000 </v>
   <v>       0.44736842      -0.44736842       0.00000000 </v>
   <v>       0.47368421      -0.47368421       0.00000000 </v>
   <v>       0.50000000      -0.50000000       0.00000000 </v>
   <v>       0.50000000      -0.50000000       0.00000000 </v>
   <v>       0.50858111      -0.49100689       0.00000000 </v>
   <v>       0.51716223      -0.48201379       0.00000000 </v>
   <v>       0.52574334      -0.47302068       0.00000000 </v>
   <v>       0.53432445      -0.46402757       0.00000000 </v>
   <v>       0.54290556      -0.45503446       0.00000000 </v>
   <v>       0.55148668      -0.44604136       0.00000000 </v>
   <v>       0.56006779      -0.43704825       0.00000000 </v>
   <v>       0.56864890      -0.42805514       0.00000000 </v>
   <v>       0.57723002      -0.41906204       0.00000000 </v>
   <v>       0.58581113      -0.41006893       0.00000000 </v>
   <v>       0.59439224      -0.40107582       0.00000000 </v>
   <v>       0.60297336      -0.39208272       0.00000000 </v>
   <v>       0.61155447      -0.38308961       0.00000000 </v>
   <v>       0.62013558      -0.37409650       0.00000000 </v>
   <v>       0.62871669      -0.36510339       0.00000000 </v>
   <v>       0.63729781      -0.35611029       0.00000000 </v>
   <v>       0.64587892      -0.34711718       0.00000000 </v>
   <v>       0.65446003      -0.33812407       0.00000000 </v>
   <v>       0.66304115      -0.32913097       0.00000000 </v>
   <v>       0.66304115      -0.32913097       0.00000000 </v>
   <v>       0.65446003      -0.31180828       0.00000000 </v>
   <v>       0.64587892      -0.29448560       0.00000000 </v>
   <v>       0.63729781      -0.27716292       0.00000000 </v>
   <v>       0.62871669      -0.25984024       0.00000000 </v>
   <v>       0.62013558      -0.24251755       0.00000000 </v>
   <v>       0.61155447      -0.22519487       0.00000000 </v>
   <v>       0.60297336      -0.20787219       0.00000000 </v>
   <v>       0.59439224      -0.19054951       0.00000000 </v>
   <v>       0.58581113      -0.17322682       0.00000000 </v>
   <v>       0.57723002      -0.15590414       0.00000000 </v>
   <v>       0.56864890      -0.13858146       0.00000000 </v>
   <v>       0.56006779      -0.12125878       0.00000000 </v>
   <v>       0.55148668      -0.10393609       0.00000000 </v>
   <v>       0.54290556      -0.08661341       0.00000000 </v>
   <v>       0.53432445      -0.06929073       0.00000000 </v>
   <v>       0.52574334      -0.05196805       0.00000000 </v>
   <v>       0.51716223      -0.03464536       0.00000000 </v>
   <v>       0.50858111      -0.01732268       0.00000000 </v>
   <v>       0.50000000       0.00000000       0.00000000 </v>
   <v>       0.50000000       0.00000000       0.00000000 </v>
   <v>       0.49141889       0.01732268       0.00000000 </v>
   <v>       0.48283777       0.03464536       0.00000000 </v>
   <v>       0.47425666       0.05196805       0.00000000 </v>
   <v>       0.46567555       0.06929073       0.00000000 </v>
   <v>       0.45709444       0.08661341       0.00000000 </v>
   <v>       0.44851332       0.10393609       0.00000000 </v>
   <v>       0.43993221       0.12125878       0.00000000 </v>
   <v>       0.43135110       0.13858146       0.00000000 </v>
   <v>       0.42276998       0.15590414       0.00000000 </v>
   <v>       0.41418887       0.17322682       0.00000000 </v>
   <v>       0.40560776       0.19054951       0.00000000 </v>
   <v>       0.39702664       0.20787219       0.00000000 </v>
   <v>       0.38844553       0.22519487       0.00000000 </v>
   <v>       0.37986442       0.24251755       0.00000000 </v>
   <v>       0.37128331       0.25984024       0.00000000 </v>
   <v>       0.36270219       0.27716292       0.00000000 </v>
   <v>       0.35412108       0.29448560       0.00000000 </v>
   <v>       0.34553997       0.31180828       0.00000000 </v>
   <v>       0.33695885       0.32913097       0.00000000 </v>
   <v>       0.33695885       0.32913097       0.00000000 </v>
   <v>       0.31922418       0.33812407       0.00000000 </v>
   <v>       0.30148950       0.34711718       0.00000000 </v>
   <v>       0.28375482       0.35611029       0.00000000 </v>
   <v>       0.26602015       0.36510339       0.00000000 </v>
   <v>       0.24828547       0.37409650       0.00000000 </v>
   <v>       0.23055079       0.38308961       0.00000000 </v>
   <v>       0.21281612       0.39208272       0.00000000 </v>
   <v>       0.19508144       0.40107582       0.00000000 </v>
   <v>       0.17734677       0.41006893       0.00000000 </v>
   <v>       0.15961209       0.41906204       0.00000000 </v>
   <v>       0.14187741       0.42805514       0.00000000 </v>
   <v>       0.12414274       0.43704825       0.00000000 </v>
   <v>       0.10640806       0.44604136       0.00000000 </v>
   <v>       0.08867338       0.45503446       0.00000000 </v>
   <v>       0.07093871       0.46402757       0.00000000 </v>
   <v>       0.05320403       0.47302068       0.00000000 </v>
   <v>       0.03546935       0.48201379       0.00000000 </v>
   <v>       0.01773468       0.49100689       0.00000000 </v>
   <v>       0.00000000       0.50000000       0.00000000 </v>
   <v>       0.00000000       0.50000000       0.00000000 </v>
   <v>       0.00000000       0.47368421       0.00000000 </v>
   <v>       0.00000000       0.44736842       0.00000000 </v>
   <v>       0.00000000       0.42105263       0.00000000 </v>
   <v>       0.00000000       0.39473684       0.00000000 </v>
   <v>       0.00000000       0.36842105       0.00000000 </v>
   <v>       0.00000000       0.34210526       0.00000000 </v>
   <v>       0.00000000       0.31578947       0.00000000 </v>
   <v>       0.00000000       0.28947368       0.00000000 </v>
   <v>       0.00000000       0.26315789       0.00000000 </v>
   <v>       0.00000000       0.23684211       0.00000000 </v>
   <v>       0.00000000       0.21052632       0.00000000 </v>
   <v>       0.00000000       0.18421053       0.00000000 </v>
   <v>       0.00000000       0.15789474       0.00000000 </v>
   <v>       0.00000000       0.13157895       0.00000000 </v>
   <v>       0.00000000       0.10526316       0.00000000 </v>
   <v>       0.00000000       0.07894737       0.00000000 </v>
   <v>       0.00000000       0.05263158       0.00000000 </v>
   <v>       0.00000000       0.02631579       0.00000000 </v>
   <v>       0.00000000       0.00000000       0.00000000 </v>
  </varray>
  <varray name="weights" >
   <v>       0.00833333 </v>
   <v>       0.00833333 </v>
   <v>       0.00833333 </v>
   <v>       0.00833333 </v>
   <v>       0.00833333 </v>
   <v>       0.00833333 </v>
   <v>       0.00833333 </v>
   <v>       0.00833333 </v>
   <v>       0.00833333 </v>
   <v>       0.00833333 </v>
   <v>       0.00833333 </v>
   <v>       0.00833333 </v>
   <v>       0.00833333 </v>
   <v>       0.00833333 </v>
   <v>       0.00833333 </v>
   <v>       0.00833333 </v>
   <v>       0.00833333 </v>
   <v>       0.00833333 </v>
   <v>       0.00833333 </v>
   <v>       0.00833333 </v>
   <v>       0.00833333 </v>
   <v>       0.00833333 </v>
   <v>       0.00833333 </v>
   <v>       0.00833333 </v>
   <v>       0.00833333 </v>
   <v>       0.00833333 </v>
   <v>       0.00833333 </v>
   <v>       0.00833333 </v>
   <v>       0.00833333 </v>
   <v>       0.00833333 </v>
   <v>       0.00833333 </v>
   <v>       0.00833333 </v>
   <v>       0.00833333 </v>
   <v>       0.00833333 </v>
   <v>       0.00833333 </v>
   <v>       0.00833333 </v>
   <v>       0.00833333 </v>
   <v>       0.00833333 </v>
   <v>       0.00833333 </v>
   <v>       0.00833333 </v>
   <v>       0.00833333 </v>
   <v>       0.00833333 </v>
   <v>       0.00833333 </v>
   <v>       0.00833333 </v>
   <v>       0.00833333 </v>
   <v>       0.00833333 </v>
   <v>       0.00833333 </v>
   <v>       0.00833333 </v>
   <v>       0.00833333 </v>
   <v>       0.00833333 </v>
   <v>       0.00833333 </v>
   <v>       0.00833333 </v>
   <v>       0.00833333 </v>
   <v>       0.00833333 </v>
   <v>       0.00833333 </v>
   <v>       0.00833333 </v>
   <v>       0.00833333 </v>
   <v>       0.00833333 </v>
   <v>       0.00833333 </v>
   <v>       0.00833333 </v>
   <v>       0.00833333 </v>
   <v>       0.00833333 </v>
   <v>       0.00833333 </v>
   <v>       0.00833333 </v>
   <v>       0.00833333 </v>
   <v>       0.00833333 </v>
   <v>       0.00833333 </v>
   <v>       0.00833333 </v>
   <v>       0.00833333 </v>
   <v>       0.00833333 </v>
   <v>       0.00833333 </v>
   <v>       0.00833333 </v>
   <v>       0.00833333 </v>
   <v>       0.00833333 </v>
   <v>       0.00833333 </v>
   <v>       0.00833333 </v>
   <v>       0.00833333 </v>
   <v>       0.00833333 </v>
   <v>       0.00833333 </v>
   <v>       0.00833333 </v>
   <v>       0.00833333 </v>
   <v>       0.00833333 </v>
   <v>       0.00833333 </v>
   <v>       0.00833333 </v>
   <v>       0.00833333 </v>
   <v>       0.00833333 </v>
   <v>       0.00833333 </v>
   <v>       0.00833333 </v>
   <v>       0.00833333 </v>
   <v>       0.00833333 </v>
   <v>       0.00833333 </v>
   <v>       0.00833333 </v>
   <v>       0.00833333 </v>
   <v>       0.00833333 </v>
   <v>       0.00833333 </v>
   <v>       0.00833333 </v>
   <v>       0.00833333 </v>
   <v>       0.00833333 </v>
   <v>       0.00833333 </v>
   <v>       0.00833333 </v>
   <v>       0.00833333 </v>
   <v>       0.00833333 </v>
   <v>       0.00833333 </v>
   <v>       0.00833333 </v>
   <v>       0.00833333 </v>
   <v>       0.00833333 </v>
   <v>       0.00833333 </v>
   <v>       0.00833333 </v>
   <v>       0.00833333 </v>
   <v>       0.00833333 </v>
   <v>       0.00833333 </v>
   <v>       0.00833333 </v>
   <v>       0.00833333 </v>
   <v>       0.00833333 </v>
   <v>       0.00833333 </v>
   <v>       0.00833333 </v>
   <v>       0.00833333 </v>
   <v>       0.00833333 </v>
   <v>       0.00833333 </v>
   <v>       0.00833333 </v>
  </varray>
 </kpoints>
 <parameters>
  <separator name="general" >
   <i type="string" name="SYSTEM">Simulation for cell shape cell volume r</i>
   <i type="logical" name="LCOMPAT"> F  </i>
  </separator>
  <separator name="electronic" >
   <i type="string" name="PREC">high</i>
   <i name="ENMAX">    500.00000000</i>
   <i name="ENAUG">    644.87300000</i>
   <i name="EDIFF">      0.00001000</i>
   <i type="int" name="IALGO">    38</i>
   <i type="int" name="IWAVPR">    10</i>
   <i type="int" name="NBANDS">   208</i>
   <i name="NELECT">    298.00000000</i>
   <i type="int" name="TURBO">     0</i>
   <i type="int" name="IRESTART">     0</i>
   <i type="int" name="NREBOOT">     0</i>
   <i type="int" name="NMIN">     0</i>
   <i name="EREF">      0.00000000</i>
   <separator name="electronic smearing" >
    <i type="int" name="ISMEAR">     0</i>
    <i name="SIGMA">      0.01000000</i>
    <i name="KSPACING">      0.50000000</i>
    <i type="logical" name="KGAMMA"> T  </i>
   </separator>
   <separator name="electronic projectors" >
    <i type="logical" name="LREAL"> T  </i>
    <v name="ROPT">     -0.00040000     -0.00040000     -0.00040000</v>
    <i type="int" name="LMAXPAW">  -100</i>
    <i type="int" name="LMAXMIX">     2</i>
    <i type="logical" name="NLSPLINE"> F  </i>
   </separator>
   <separator name="electronic startup" >
    <i type="int" name="ISTART">     1</i>
    <i type="int" name="ICHARG">    11</i>
    <i type="int" name="INIWAV">     1</i>
   </separator>
   <separator name="electronic spin" >
    <i type="int" name="ISPIN">     1</i>
    <i type="logical" name="LNONCOLLINEAR"> F  </i>
    <v name="MAGMOM">      1.00000000      1.00000000      1.00000000      1.00000000      1.00000000      1.00000000      1.00000000      1.00000000      1.00000000      1.00000000      1.00000000      1.00000000      1.00000000      1.00000000      1.00000000      1.00000000      1.00000000      1.00000000      1.00000000      1.00000000
      1.00000000      1.00000000      1.00000000      1.00000000      1.00000000      1.00000000      1.00000000      1.00000000      1.00000000      1.00000000      1.00000000      1.00000000      1.00000000      1.00000000      1.00000000      1.00000000      1.00000000      1.00000000      1.00000000      1.00000000
      1.00000000      1.00000000      1.00000000      1.00000000      1.00000000      1.00000000      1.00000000      1.00000000      1.00000000      1.00000000      1.00000000      1.00000000      1.00000000      1.00000000      1.00000000      1.00000000      1.00000000      1.00000000      1.00000000      1.00000000
      1.00000000      1.00000000      1.00000000      1.00000000      1.00000000      1.00000000      1.00000000      1.00000000      1.00000000      1.00000000      1.00000000      1.00000000      1.00000000      1.00000000      1.00000000      1.00000000      1.00000000      1.00000000      1.00000000      1.00000000
      1.00000000      1.00000000      1.00000000      1.00000000      1.00000000      1.00000000      1.00000000      1.00000000      1.00000000      1.00000000      1.00000000      1.00000000      1.00000000      1.00000000      1.00000000      1.00000000      1.00000000      1.00000000      1.00000000      1.00000000
      1.00000000      1.00000000      1.00000000      1.00000000</v>
    <i name="NUPDOWN">     -1.00000000</i>
    <i type="logical" name="LSORBIT"> F  </i>
    <v name="SAXIS">      0.00000000      0.00000000      1.00000000</v>
    <i type="logical" name="LSPIRAL"> F  </i>
    <v name="QSPIRAL">      0.00000000      0.00000000      0.00000000</v>
    <i type="logical" name="LZEROZ"> F  </i>
   </separator>
   <separator name="electronic exchange-correlation" >
    <i type="logical" name="LASPH"> F  </i>
    <i type="logical" name="LMETAGGA"> F  </i>
   </separator>
   <separator name="electronic convergence" >
    <i type="int" name="NELM">   200</i>
    <i type="int" name="NELMDL">     0</i>
    <i type="int" name="NELMIN">     2</i>
    <i name="ENINI">    500.00000000</i>
    <separator name="electronic convergence detail" >
     <i type="logical" name="LDIAG"> T  </i>
     <i type="logical" name="LSUBROT"> F  </i>
     <i name="WEIMIN">      0.00000000</i>
     <i name="EBREAK">      0.00000001</i>
     <i name="DEPER">      0.30000000</i>
     <i type="int" name="NRMM">     4</i>
     <i name="TIME">      0.40000000</i>
    </separator>
   </separator>
   <separator name="electronic mixer" >
    <i name="AMIX">      0.40000000</i>
    <i name="BMIX">      1.00000000</i>
    <i name="AMIN">      0.10000000</i>
    <i name="AMIX_MAG">      1.60000000</i>
    <i name="BMIX_MAG">      1.00000000</i>
    <separator name="electronic mixer details" >
     <i type="int" name="IMIX">     4</i>
     <i type="logical" name="MIXFIRST"> F  </i>
     <i type="int" name="MAXMIX">   -45</i>
     <i name="WC">    100.00000000</i>
     <i type="int" name="INIMIX">     1</i>
     <i type="int" name="MIXPRE">     1</i>
     <i type="int" name="MREMOVE">     5</i>
    </separator>
   </separator>
   <separator name="electronic dipolcorrection" >
    <i type="logical" name="LDIPOL"> F  </i>
    <i type="logical" name="LMONO"> F  </i>
    <i type="int" name="IDIPOL">     0</i>
    <i name="EPSILON">      1.00000000</i>
    <v name="DIPOL">   -100.00000000   -100.00000000   -100.00000000</v>
    <i name="EFIELD">      0.00000000</i>
   </separator>
  </separator>
  <separator name="grids" >
   <i type="int" name="NGX">   180</i>
   <i type="int" name="NGY">   180</i>
   <i type="int" name="NGZ">   150</i>
   <i type="int" name="NGXF">   270</i>
   <i type="int" name="NGYF">   280</i>
   <i type="int" name="NGZF">   224</i>
   <i type="logical" name="ADDGRID"> F  </i>
  </separator>
  <separator name="ionic" >
   <i type="int" name="NSW">     0</i>
   <i type="int" name="IBRION">    -1</i>
   <i type="int" name="MDALGO">     0</i>
   <i type="int" name="ISIF">     2</i>
   <i name="PSTRESS">      0.00000000</i>
   <i name="EDIFFG">     -0.01000000</i>
   <i type="int" name="NFREE">     0</i>
   <i name="POTIM">      0.30000000</i>
   <i name="SMASS">     -3.00000000</i>
   <i name="SCALEE">      1.00000000</i>
  </separator>
  <separator name="ionic md" >
   <i name="TEBEG">      0.00010000</i>
   <i name="TEEND">      0.00010000</i>
   <i type="int" name="NBLOCK">     1</i>
   <i type="int" name="KBLOCK">     1</i>
   <i type="int" name="NPACO">   256</i>
   <i name="APACO">     16.00000000</i>
  </separator>
  <separator name="symmetry" >
   <i type="int" name="ISYM">     2</i>
   <i name="SYMPREC">      0.00001000</i>
  </separator>
  <separator name="dos" >
   <i type="int" name="LORBIT">     0</i>
   <v name="RWIGS">     -1.00000000     -1.00000000     -1.00000000</v>
   <i type="int" name="NEDOS">   301</i>
   <i name="EMIN">     10.00000000</i>
   <i name="EMAX">    -10.00000000</i>
   <i name="EFERMI">      0.00000000</i>
  </separator>
  <separator name="writing" >
   <i type="int" name="NWRITE">     0</i>
   <i type="logical" name="LWAVE"> F  </i>
   <i type="logical" name="LDOWNSAMPLE"> F  </i>
   <i type="logical" name="LCHARG"> F  </i>
   <i type="logical" name="LPARD"> F  </i>
   <i type="logical" name="LVTOT"> F  </i>
   <i type="logical" name="LVHAR"> F  </i>
   <i type="logical" name="LELF"> F  </i>
   <i type="logical" name="LOPTICS"> F  </i>
   <v name="STM">      0.00000000      0.00000000      0.00000000      0.00000000      0.00000000      0.00000000      0.00000000</v>
  </separator>
  <separator name="performance" >
   <i type="int" name="NPAR">    16</i>
   <i type="int" name="NSIM">     4</i>
   <i type="int" name="NBLK">    -1</i>
   <i type="logical" name="LPLANE"> T  </i>
   <i type="logical" name="LSCALAPACK"> T  </i>
   <i type="logical" name="LSCAAWARE"> F  </i>
   <i type="logical" name="LSCALU"> F  </i>
   <i type="logical" name="LASYNC"> F  </i>
   <i type="logical" name="LORBITALREAL"> F  </i>
  </separator>
  <separator name="miscellaneous" >
   <i type="int" name="IDIOT">     3</i>
   <i type="int" name="ISPECIAL">     0</i>
   <i type="logical" name="LMUSIC"> F  </i>
   <v name="POMASS">      1.00000000     14.00100000     12.01100000</v>
   <v name="DARWINR">      0.00000000      0.00000000      0.00000000</v>
   <v name="DARWINV">      1.00000000      1.00000000      1.00000000</v>
   <i type="logical" name="LCORR"> T  </i>
  </separator>
  <i type="logical" name="GGA_COMPAT"> T  </i>
  <i type="logical" name="LBERRY"> F  </i>
  <i type="int" name="ICORELEVEL">     0</i>
  <i type="logical" name="LDAU"> F  </i>
  <i type="int" name="I_CONSTRAINED_M">     0</i>
  <separator name="electronic exchange-correlation" >
   <i type="string" name="GGA">PE</i>
   <i type="int" name="VOSKOWN">     0</i>
   <i type="logical" name="LHFCALC"> F  </i>
   <i type="string" name="PRECFOCK"></i>
   <i type="logical" name="LSYMGRAD"> F  </i>
   <i type="logical" name="LHFONE"> F  </i>
   <i type="logical" name="LRHFCALC"> F  </i>
   <i type="logical" name="LTHOMAS"> F  </i>
   <i type="logical" name="LMODELHF"> F  </i>
   <i name="ENCUT4O">     -1.00000000</i>
   <i type="int" name="EXXOEP">     0</i>
   <i type="int" name="FOURORBIT">     0</i>
   <i name="AEXX">      0.00000000</i>
   <i name="HFALPHA">      0.00000000</i>
   <i name="MCALPHA">      0.00000000</i>
   <i name="ALDAX">      1.00000000</i>
   <i name="AGGAX">      1.00000000</i>
   <i name="ALDAC">      1.00000000</i>
   <i name="AGGAC">      1.00000000</i>
   <i type="int" name="NKREDX">     1</i>
   <i type="int" name="NKREDY">     1</i>
   <i type="int" name="NKREDZ">     1</i>
   <i type="logical" name="SHIFTRED"> F  </i>
   <i type="logical" name="ODDONLY"> F  </i>
   <i type="logical" name="EVENONLY"> F  </i>
   <i type="int" name="LMAXFOCK">     0</i>
   <i type="int" name="NMAXFOCKAE">     0</i>
   <i type="logical" name="LFOCKAEDFT"> F  </i>
   <i name="HFSCREEN">      0.00000000</i>
   <i name="HFSCREENC">      0.00000000</i>
   <i type="int" name="NBANDSGWLOW">     0</i>
  </separator>
  <separator name="vdW DFT" >
   <i type="logical" name="LUSE_VDW"> F  </i>
   <i name="Zab_VDW">     -0.84910000</i>
   <i name="PARAM1">      0.12340000</i>
   <i name="PARAM2">      1.00000000</i>
   <i name="PARAM3">      0.00000000</i>
  </separator>
  <separator name="model GW" >
   <i type="int" name="MODEL_GW">     0</i>
   <i name="MODEL_EPS0">     60.16760677</i>
   <i name="MODEL_ALPHA">      1.00000000</i>
  </separator>
  <separator name="linear response parameters" >
   <i type="logical" name="LEPSILON"> F  </i>
   <i type="logical" name="LRPA"> F  </i>
   <i type="logical" name="LNABLA"> F  </i>
   <i type="logical" name="LVEL"> F  </i>
   <i type="int" name="KINTER">     0</i>
   <i name="CSHIFT">      0.10000000</i>
   <i name="OMEGAMAX">     -1.00000000</i>
   <i name="DEG_THRESHOLD">      0.00200000</i>
   <i name="RTIME">     -0.10000000</i>
   <i name="WPLASMAI">      0.00000000</i>
   <v name="DFIELD">      0.00000000      0.00000000      0.00000000</v>
   <v name="WPLASMA">      0.00000000      0.00000000      0.00000000      0.00000000      0.00000000      0.00000000      0.00000000      0.00000000      0.00000000</v>
  </separator>
  <separator name="orbital magnetization" >
   <i type="logical" name="NUCIND"> F  </i>
   <v name="MAGPOS">      0.00000000      0.00000000      0.00000000</v>
   <i type="logical" name="LNICSALL"> T  </i>
   <i type="logical" name="ORBITALMAG"> F  </i>
   <i type="logical" name="LMAGBLOCH"> F  </i>
   <i type="logical" name="LCHIMAG"> F  </i>
   <i type="logical" name="LGAUGE"> T  </i>
   <i type="int" name="MAGATOM">     0</i>
   <v name="MAGDIPOL">      0.00000000      0.00000000      0.00000000</v>
   <v name="AVECCONST">      0.00000000      0.00000000      0.00000000</v>
  </separator>
  <separator name="response functions" >
   <i type="logical" name="LADDER"> F  </i>
   <i type="logical" name="LRPAFORCE"> F  </i>
   <i type="logical" name="LFXC"> F  </i>
   <i type="logical" name="LHARTREE"> T  </i>
   <i type="int" name="IBSE">     0</i>
   <v type="int" name="KPOINT">    -1     0     0     0</v>
   <i type="logical" name="LTCTE"> F  </i>
   <i type="logical" name="LTETE"> F  </i>
   <i type="logical" name="LTRIPLET"> F  </i>
   <i type="logical" name="LFXCEPS"> F  </i>
   <i type="logical" name="LFXHEG"> F  </i>
   <i type="int" name="NATURALO">     2</i>
   <i type="logical" name="L2ORDER"> F  </i>
   <i type="logical" name="LMP2LT"> F  </i>
   <i type="logical" name="LUSEW"> F  </i>
   <i name="ENCUTGW">     -2.00000000</i>
   <i name="ENCUTGWSOFT">     -2.00000000</i>
   <i name="ENCUTLF">     -1.00000000</i>
   <i type="int" name="LMAXMP2">    -1</i>
   <i name="SCISSOR">      0.00000000</i>
   <i type="int" name="NOMEGA">     0</i>
   <i type="int" name="NOMEGAR">     0</i>
   <i type="int" name="NBANDSGW">    -1</i>
   <i type="int" name="NBANDSO">    -1</i>
   <i type="int" name="NBANDSV">    -1</i>
   <i type="int" name="NELM">   200</i>
   <i type="int" name="NELMHF">     1</i>
   <i type="int" name="DIM">     3</i>
   <i type="int" name="ANTIRES">     0</i>
   <i name="OMEGAMAX">    -30.00000000</i>
   <i name="OMEGAMIN">    -30.00000000</i>
   <i name="OMEGATL">   -200.00000000</i>
   <i type="int" name="OMEGAGRID">   140</i>
   <i name="CSHIFT">     -0.10000000</i>
   <i type="logical" name="SELFENERGY"> F  </i>
   <i type="logical" name="LSPECTRAL"> F  </i>
   <i type="logical" name="LSPECTRALGW"> F  </i>
   <i type="logical" name="LSINGLES"> F  </i>
   <i type="logical" name="LFERMIGW"> F  </i>
   <i type="logical" name="ODDONLYGW"> F  </i>
   <i type="logical" name="EVENONLYGW"> F  </i>
   <i type="int" name="NKREDLFX">     1</i>
   <i type="int" name="NKREDLFY">     1</i>
   <i type="int" name="NKREDLFZ">     1</i>
   <i type="int" name="MAXMEM">  2800</i>
   <i type="int" name="TELESCOPE">     0</i>
   <i type="int" name="TAUPAR">     1</i>
   <i type="int" name="OMEGAPAR">    -1</i>
   <i name="LAMBDA">      1.00000000</i>
  </separator>
  <separator name="External order field" >
   <i name="OFIELD_KAPPA">      0.00000000</i>
   <v name="OFIELD_K">      0.00000000      0.00000000      0.00000000</v>
   <i name="OFIELD_Q6_NEAR">      0.00000000</i>
   <i name="OFIELD_Q6_FAR">      0.00000000</i>
   <i name="OFIELD_A">      0.00000000</i>
  </separator>
  <separator name="solvation model" >
   <i type="logical" name="LSOL"> F  </i>
  </separator>
 </parameters>
 <atominfo>
  <atoms>     104 </atoms>
  <types>       3 </types>
  <array name="atoms" >
   <dimension dim="1">ion</dimension>
   <field type="string">element</field>
   <field type="int">atomtype</field>
   <set>
    <rc><c>H </c><c>   1</c></rc>
    <rc><c>H </c><c>   1</c></rc>
    <rc><c>H </c><c>   1</c></rc>
    <rc><c>H </c><c>   1</c></rc>
    <rc><c>H </c><c>   1</c></rc>
    <rc><c>H </c><c>   1</c></rc>
    <rc><c>H </c><c>   1</c></rc>
    <rc><c>H </c><c>   1</c></rc>
    <rc><c>H </c><c>   1</c></rc>
    <rc><c>H </c><c>   1</c></rc>
    <rc><c>H </c><c>   1</c></rc>
    <rc><c>H </c><c>   1</c></rc>
    <rc><c>H </c><c>   1</c></rc>
    <rc><c>H </c><c>   1</c></rc>
    <rc><c>H </c><c>   1</c></rc>
    <rc><c>H </c><c>   1</c></rc>
    <rc><c>H </c><c>   1</c></rc>
    <rc><c>H </c><c>   1</c></rc>
    <rc><c>H </c><c>   1</c></rc>
    <rc><c>H </c><c>   1</c></rc>
    <rc><c>H </c><c>   1</c></rc>
    <rc><c>H </c><c>   1</c></rc>
    <rc><c>H </c><c>   1</c></rc>
    <rc><c>H </c><c>   1</c></rc>
    <rc><c>H </c><c>   1</c></rc>
    <rc><c>H </c><c>   1</c></rc>
    <rc><c>H </c><c>   1</c></rc>
    <rc><c>H </c><c>   1</c></rc>
    <rc><c>H </c><c>   1</c></rc>
    <rc><c>H </c><c>   1</c></rc>
    <rc><c>H </c><c>   1</c></rc>
    <rc><c>H </c><c>   1</c></rc>
    <rc><c>H </c><c>   1</c></rc>
    <rc><c>H </c><c>   1</c></rc>
    <rc><c>H </c><c>   1</c></rc>
    <rc><c>H </c><c>   1</c></rc>
    <rc><c>H </c><c>   1</c></rc>
    <rc><c>H </c><c>   1</c></rc>
    <rc><c>H </c><c>   1</c></rc>
    <rc><c>H </c><c>   1</c></rc>
    <rc><c>H </c><c>   1</c></rc>
    <rc><c>H </c><c>   1</c></rc>
    <rc><c>N </c><c>   2</c></rc>
    <rc><c>N </c><c>   2</c></rc>
    <rc><c>N </c><c>   2</c></rc>
    <rc><c>N </c><c>   2</c></rc>
    <rc><c>N </c><c>   2</c></rc>
    <rc><c>N </c><c>   2</c></rc>
    <rc><c>N </c><c>   2</c></rc>
    <rc><c>N </c><c>   2</c></rc>
    <rc><c>C </c><c>   3</c></rc>
    <rc><c>C </c><c>   3</c></rc>
    <rc><c>C </c><c>   3</c></rc>
    <rc><c>C </c><c>   3</c></rc>
    <rc><c>C </c><c>   3</c></rc>
    <rc><c>C </c><c>   3</c></rc>
    <rc><c>C </c><c>   3</c></rc>
    <rc><c>C </c><c>   3</c></rc>
    <rc><c>C </c><c>   3</c></rc>
    <rc><c>C </c><c>   3</c></rc>
    <rc><c>C </c><c>   3</c></rc>
    <rc><c>C </c><c>   3</c></rc>
    <rc><c>C </c><c>   3</c></rc>
    <rc><c>C </c><c>   3</c></rc>
    <rc><c>C </c><c>   3</c></rc>
    <rc><c>C </c><c>   3</c></rc>
    <rc><c>C </c><c>   3</c></rc>
    <rc><c>C </c><c>   3</c></rc>
    <rc><c>C </c><c>   3</c></rc>
    <rc><c>C </c><c>   3</c></rc>
    <rc><c>C </c><c>   3</c></rc>
    <rc><c>C </c><c>   3</c></rc>
    <rc><c>C </c><c>   3</c></rc>
    <rc><c>C </c><c>   3</c></rc>
    <rc><c>C </c><c>   3</c></rc>
    <rc><c>C </c><c>   3</c></rc>
    <rc><c>C </c><c>   3</c></rc>
    <rc><c>C </c><c>   3</c></rc>
    <rc><c>C </c><c>   3</c></rc>
    <rc><c>C </c><c>   3</c></rc>
    <rc><c>C </c><c>   3</c></rc>
    <rc><c>C </c><c>   3</c></rc>
    <rc><c>C </c><c>   3</c></rc>
    <rc><c>C </c><c>   3</c></rc>
    <rc><c>C </c><c>   3</c></rc>
    <rc><c>C </c><c>   3</c></rc>
    <rc><c>C </c><c>   3</c></rc>
    <rc><c>C </c><c>   3</c></rc>
    <rc><c>C </c><c>   3</c></rc>
    <rc><c>C </c><c>   3</c></rc>
    <rc><c>C </c><c>   3</c></rc>
    <rc><c>C </c><c>   3</c></rc>
    <rc><c>C </c><c>   3</c></rc>
    <rc><c>C </c><c>   3</c></rc>
    <rc><c>C </c><c>   3</c></rc>
    <rc><c>C </c><c>   3</c></rc>
    <rc><c>C </c><c>   3</c></rc>
    <rc><c>C </c><c>   3</c></rc>
    <rc><c>C </c><c>   3</c></rc>
    <rc><c>C </c><c>   3</c></rc>
    <rc><c>C </c><c>   3</c></rc>
    <rc><c>C </c><c>   3</c></rc>
    <rc><c>C </c><c>   3</c></rc>
    <rc><c>C </c><c>   3</c></rc>
   </set>
  </array>
  <array name="atomtypes" >
   <dimension dim="1">type</dimension>
   <field type="int">atomspertype</field>
   <field type="string">element</field>
   <field>mass</field>
   <field>valence</field>
   <field type="string">pseudopotential</field>
   <set>
    <rc><c>  42</c><c>H </c><c>      1.00000000</c><c>      1.00000000</c><c>  PAW_PBE H 15Jun2001                   </c></rc>
    <rc><c>   8</c><c>N </c><c>     14.00100000</c><c>      5.00000000</c><c>  PAW_PBE N 08Apr2002                   </c></rc>
    <rc><c>  54</c><c>C </c><c>     12.01100000</c><c>      4.00000000</c><c>  PAW_PBE C 08Apr2002                   </c></rc>
   </set>
  </array>
 </atominfo>
 <structure name="initialpos" >
  <crystal>
   <varray name="basis" >
    <v>      24.40465138      -0.09731266       0.00000000 </v>
    <v>     -12.29019735      21.41594140       0.00000000 </v>
    <v>       0.00000000       0.00000000      20.00000000 </v>
   </varray>
   <i name="volume">  10429.05183957 </i>
   <varray name="rec_basis" >
    <v>       0.04106978       0.02356916       0.00000000 </v>
    <v>       0.00018662       0.04680129       0.00000000 </v>
    <v>       0.00000000       0.00000000       0.05000000 </v>
   </varray>
  </crystal>
  <varray name="positions" >
   <v>       0.12968139       0.59280744       0.39592321 </v>
   <v>       0.24613026       0.64896441       0.39516182 </v>
   <v>       0.24549636       0.52649582       0.54887395 </v>
   <v>       0.12776654       0.46960467       0.54939940 </v>
   <v>       0.28827659       0.69908719       0.53662205 </v>
   <v>       0.34765027       0.81518183       0.53661954 </v>
   <v>       0.28546283       0.51719246       0.40799628 </v>
   <v>       0.34134737       0.45755390       0.40799671 </v>
   <v>       0.48383837       0.59406395       0.53857332 </v>
   <v>       0.42799229       0.65482601       0.53825257 </v>
   <v>       0.42958972       0.69913630       0.40725781 </v>
   <v>       0.48786175       0.81405975       0.40701056 </v>
   <v>       0.83975887       0.31791609       0.56465584 </v>
   <v>       0.72340096       0.26229962       0.56401189 </v>
   <v>       0.72639432       0.38601389       0.41040669 </v>
   <v>       0.84406663       0.44242952       0.41137586 </v>
   <v>       0.68197586       0.21307269       0.42230729 </v>
   <v>       0.62207995       0.09699875       0.42211154 </v>
   <v>       0.68575871       0.39521045       0.55096648 </v>
   <v>       0.63094330       0.45584341       0.55069905 </v>
   <v>       0.48834040       0.32053084       0.41925721 </v>
   <v>       0.54316717       0.25882083       0.41981722 </v>
   <v>       0.54046704       0.21370013       0.55081476 </v>
   <v>       0.48168556       0.09874426       0.55095147 </v>
   <v>       0.04075154       0.59842307       0.40330526 </v>
   <v>       0.99577066       0.59635968       0.47373835 </v>
   <v>       0.07702063       0.61673465       0.48323883 </v>
   <v>       0.43807998       0.50129407       0.33751409 </v>
   <v>       0.46948764       0.45249841       0.31220144 </v>
   <v>       0.39025860       0.41864401       0.34036532 </v>
   <v>       0.44601738       0.86649313       0.33629484 </v>
   <v>       0.49590144       0.94684737       0.31269937 </v>
   <v>       0.52949463       0.90241581       0.34265773 </v>
   <v>       0.92986176       0.31404761       0.56035555 </v>
   <v>       0.89420502       0.29477802       0.48012108 </v>
   <v>       0.97546130       0.31557007       0.49074466 </v>
   <v>       0.50397908       0.46298220       0.64578325 </v>
   <v>       0.53461276       0.41348319       0.62067184 </v>
   <v>       0.58305281       0.49603425       0.61728981 </v>
   <v>       0.47395500       0.96566589       0.64545520 </v>
   <v>       0.52364730       0.04603472       0.62177878 </v>
   <v>       0.44011924       0.00998023       0.61586456 </v>
   <v>       0.32084096       0.62474595       0.47197830 </v>
   <v>       0.64977863       0.28775912       0.48656321 </v>
   <v>       0.94687785       0.48102405       0.47173923 </v>
   <v>       0.49443394       0.42751840       0.42478317 </v>
   <v>       0.51585195       0.99488273       0.42577729 </v>
   <v>       0.02402301       0.43072589       0.49039368 </v>
   <v>       0.47847624       0.48723256       0.53320425 </v>
   <v>       0.45347787       0.91765352       0.53232174 </v>
   <v>       0.25373732       0.59210318       0.47250692 </v>
   <v>       0.35327955       0.59071257       0.47226502 </v>
   <v>       0.35444730       0.69088522       0.47140596 </v>
   <v>       0.33181408       0.72449890       0.50772060 </v>
   <v>       0.36475220       0.78946922       0.50722169 </v>
   <v>       0.42105562       0.82358729       0.47032027 </v>
   <v>       0.44355343       0.78955771       0.43471971 </v>
   <v>       0.41102341       0.72443479       0.43504470 </v>
   <v>       0.22014311       0.61022902       0.42980224 </v>
   <v>       0.15428131       0.57878122       0.43115410 </v>
   <v>       0.11973329       0.52800981       0.47462825 </v>
   <v>       0.15402804       0.50940560       0.51612132 </v>
   <v>       0.21974913       0.54095910       0.51563057 </v>
   <v>       0.32948491       0.53466083       0.43594756 </v>
   <v>       0.36157902       0.50135567       0.43578488 </v>
   <v>       0.41826049       0.52254195       0.47160780 </v>
   <v>       0.44097446       0.57807515       0.50888726 </v>
   <v>       0.40944282       0.61181268       0.50919843 </v>
   <v>       0.71691083       0.31990582       0.48674399 </v>
   <v>       0.61786857       0.32227849       0.48622614 </v>
   <v>       0.61571460       0.22160665       0.48704828 </v>
   <v>       0.63824543       0.18779241       0.45094010 </v>
   <v>       0.60500606       0.12283330       0.45133256 </v>
   <v>       0.54848605       0.08892302       0.48793700 </v>
   <v>       0.52610701       0.12312353       0.52340475 </v>
   <v>       0.55893661       0.18825920       0.52314900 </v>
   <v>       0.74987324       0.30124546       0.52973631 </v>
   <v>       0.81576398       0.33244432       0.52919714 </v>
   <v>       0.85103695       0.38354215       0.48630875 </v>
   <v>       0.81732365       0.40248957       0.44433579 </v>
   <v>       0.75160425       0.37118603       0.44399192 </v>
   <v>       0.64195365       0.37825367       0.52273675 </v>
   <v>       0.61043780       0.41212142       0.52274872 </v>
   <v>       0.55402603       0.39157291       0.48659137 </v>
   <v>       0.53099343       0.33605837       0.44918511 </v>
   <v>       0.56195201       0.30177610       0.44901512 </v>
   <v>       0.04973437       0.49220332       0.47713308 </v>
   <v>       0.00971276       0.51804464       0.46815344 </v>
   <v>       0.03253317       0.58638003       0.45678798 </v>
   <v>       0.45315274       0.48788461       0.47361341 </v>
   <v>       0.46184244       0.45747560       0.41777488 </v>
   <v>       0.43867353       0.45798483       0.34814056 </v>
   <v>       0.45501472       0.89280564       0.47289480 </v>
   <v>       0.48694685       0.93277682       0.41801695 </v>
   <v>       0.48925957       0.91046635       0.34858169 </v>
   <v>       0.93845857       0.32555669       0.50676765 </v>
   <v>       0.96118244       0.39373756       0.49434151 </v>
   <v>       0.92111551       0.41945764       0.48475131 </v>
   <v>       0.53443804       0.45696681       0.60981602 </v>
   <v>       0.51109522       0.45730148       0.54021557 </v>
   <v>       0.51960370       0.42670800       0.48443540 </v>
   <v>       0.48038217       0.00202634       0.60964906 </v>
   <v>       0.48242920       0.97973795       0.54012146 </v>
   <v>       0.51432164       0.01970753       0.48522875 </v>
  </varray>
 </structure>
 <calculation>
  <scstep>
   <time name="dav">  713.57  721.32</time>
   <time name="total">  713.76  721.51</time>
   <energy>
    <i name="alphaZ">     39.53768765 </i>
    <i name="ewald">  34871.66703129 </i>
    <i name="hartreedc"> -43556.48802559 </i>
    <i name="XCdc">   1019.65374157 </i>
    <i name="pawpsdc">  26917.01052247 </i>
    <i name="pawaedc"> -26966.30675241 </i>
    <i name="eentropy">     -0.00000000 </i>
    <i name="bandstr">  -3617.42554939 </i>
    <i name="atom">  10586.72362087 </i>
    <i name="e_fr_energy">   -705.62772353 </i>
    <i name="e_wo_entrp">   -705.62772353 </i>
    <i name="e_0_energy">   -705.62772353 </i>
   </energy>
  </scstep>
  <scstep>
   <time name="dav">  790.43  799.27</time>
   <time name="total">  790.44  799.28</time>
   <energy>
    <i name="e_fr_energy">   -706.35777342 </i>
    <i name="e_wo_entrp">   -706.35777342 </i>
    <i name="e_0_energy">   -706.35777342 </i>
   </energy>
  </scstep>
  <scstep>
   <time name="dav">  869.97  879.69</time>
   <time name="total">  869.98  879.69</time>
   <energy>
    <i name="e_fr_energy">   -706.37861108 </i>
    <i name="e_wo_entrp">   -706.37861108 </i>
    <i name="e_0_energy">   -706.37861108 </i>
   </energy>
  </scstep>
  <scstep>
   <time name="dav">  787.36  795.84</time>
   <time name="total">  787.36  795.84</time>
   <energy>
    <i name="e_fr_energy">   -706.37895806 </i>
    <i name="e_wo_entrp">   -706.37895806 </i>
    <i name="e_0_energy">   -706.37895806 </i>
   </energy>
  </scstep>
  <scstep>
   <time name="dav">  757.49  765.69</time>
   <time name="total">  757.49  765.69</time>
   <energy>
    <i name="e_fr_energy">   -706.37897448 </i>
    <i name="e_wo_entrp">   -706.37897448 </i>
    <i name="e_0_energy">   -706.37897448 </i>
   </energy>
  </scstep>
  <scstep>
   <time name="dav">  620.09  626.78</time>
   <time name="total">  620.10  626.79</time>
   <energy>
    <i name="alphaZ">     39.53768765 </i>
    <i name="ewald">  34871.66703129 </i>
    <i name="hartreedc"> -43556.48802559 </i>
    <i name="XCdc">   1019.65374157 </i>
    <i name="pawpsdc">  26917.01052247 </i>
    <i name="pawaedc"> -26966.30675241 </i>
    <i name="eentropy">     -0.00000000 </i>
    <i name="bandstr">  -3618.17680092 </i>
    <i name="atom">  10586.72362087 </i>
    <i name="e_fr_energy">   -706.37897507 </i>
    <i name="e_wo_entrp">   -706.37897507 </i>
    <i name="e_0_energy">   -706.37897507 </i>
   </energy>
  </scstep>
  <structure>
   <crystal>
    <varray name="basis" >
     <v>      24.40465138      -0.09731266       0.00000000 </v>
     <v>     -12.29019735      21.41594140       0.00000000 </v>
     <v>       0.00000000       0.00000000      20.00000000 </v>
    </varray>
    <i name="volume">  10429.05183957 </i>
    <varray name="rec_basis" >
     <v>       0.04106978       0.02356916       0.00000000 </v>
     <v>       0.00018662       0.04680129       0.00000000 </v>
     <v>       0.00000000       0.00000000       0.05000000 </v>
    </varray>
   </crystal>
   <varray name="positions" >
    <v>       0.12968139       0.59280744       0.39592321 </v>
    <v>       0.24613026       0.64896441       0.39516182 </v>
    <v>       0.24549636       0.52649582       0.54887395 </v>
    <v>       0.12776654       0.46960467       0.54939940 </v>
    <v>       0.28827659       0.69908719       0.53662205 </v>
    <v>       0.34765027       0.81518183       0.53661954 </v>
    <v>       0.28546283       0.51719246       0.40799628 </v>
    <v>       0.34134737       0.45755390       0.40799671 </v>
    <v>       0.48383837       0.59406395       0.53857332 </v>
    <v>       0.42799229       0.65482601       0.53825257 </v>
    <v>       0.42958972       0.69913630       0.40725781 </v>
    <v>       0.48786175       0.81405975       0.40701056 </v>
    <v>       0.83975887       0.31791609       0.56465584 </v>
    <v>       0.72340096       0.26229962       0.56401189 </v>
    <v>       0.72639432       0.38601389       0.41040669 </v>
    <v>       0.84406663       0.44242952       0.41137586 </v>
    <v>       0.68197586       0.21307269       0.42230729 </v>
    <v>       0.62207995       0.09699875       0.42211154 </v>
    <v>       0.68575871       0.39521045       0.55096648 </v>
    <v>       0.63094330       0.45584341       0.55069905 </v>
    <v>       0.48834040       0.32053084       0.41925721 </v>
    <v>       0.54316717       0.25882083       0.41981722 </v>
    <v>       0.54046704       0.21370013       0.55081476 </v>
    <v>       0.48168556       0.09874426       0.55095147 </v>
    <v>       0.04075154       0.59842307       0.40330526 </v>
    <v>       0.99577066       0.59635968       0.47373835 </v>
    <v>       0.07702063       0.61673465       0.48323883 </v>
    <v>       0.43807998       0.50129407       0.33751409 </v>
    <v>       0.46948764       0.45249841       0.31220144 </v>
    <v>       0.39025860       0.41864401       0.34036532 </v>
    <v>       0.44601738       0.86649313       0.33629484 </v>
    <v>       0.49590144       0.94684737       0.31269937 </v>
    <v>       0.52949463       0.90241581       0.34265773 </v>
    <v>       0.92986176       0.31404761       0.56035555 </v>
    <v>       0.89420502       0.29477802       0.48012108 </v>
    <v>       0.97546130       0.31557007       0.49074466 </v>
    <v>       0.50397908       0.46298220       0.64578325 </v>
    <v>       0.53461276       0.41348319       0.62067184 </v>
    <v>       0.58305281       0.49603425       0.61728981 </v>
    <v>       0.47395500       0.96566589       0.64545520 </v>
    <v>       0.52364730       0.04603472       0.62177878 </v>
    <v>       0.44011924       0.00998023       0.61586456 </v>
    <v>       0.32084096       0.62474595       0.47197830 </v>
    <v>       0.64977863       0.28775912       0.48656321 </v>
    <v>       0.94687785       0.48102405       0.47173923 </v>
    <v>       0.49443394       0.42751840       0.42478317 </v>
    <v>       0.51585195       0.99488273       0.42577729 </v>
    <v>       0.02402301       0.43072589       0.49039368 </v>
    <v>       0.47847624       0.48723256       0.53320425 </v>
    <v>       0.45347787       0.91765352       0.53232174 </v>
    <v>       0.25373732       0.59210318       0.47250692 </v>
    <v>       0.35327955       0.59071257       0.47226502 </v>
    <v>       0.35444730       0.69088522       0.47140596 </v>
    <v>       0.33181408       0.72449890       0.50772060 </v>
    <v>       0.36475220       0.78946922       0.50722169 </v>
    <v>       0.42105562       0.82358729       0.47032027 </v>
    <v>       0.44355343       0.78955771       0.43471971 </v>
    <v>       0.41102341       0.72443479       0.43504470 </v>
    <v>       0.22014311       0.61022902       0.42980224 </v>
    <v>       0.15428131       0.57878122       0.43115410 </v>
    <v>       0.11973329       0.52800981       0.47462825 </v>
    <v>       0.15402804       0.50940560       0.51612132 </v>
    <v>       0.21974913       0.54095910       0.51563057 </v>
    <v>       0.32948491       0.53466083       0.43594756 </v>
    <v>       0.36157902       0.50135567       0.43578488 </v>
    <v>       0.41826049       0.52254195       0.47160780 </v>
    <v>       0.44097446       0.57807515       0.50888726 </v>
    <v>       0.40944282       0.61181268       0.50919843 </v>
    <v>       0.71691083       0.31990582       0.48674399 </v>
    <v>       0.61786857       0.32227849       0.48622614 </v>
    <v>       0.61571460       0.22160665       0.48704828 </v>
    <v>       0.63824543       0.18779241       0.45094010 </v>
    <v>       0.60500606       0.12283330       0.45133256 </v>
    <v>       0.54848605       0.08892302       0.48793700 </v>
    <v>       0.52610701       0.12312353       0.52340475 </v>
    <v>       0.55893661       0.18825920       0.52314900 </v>
    <v>       0.74987324       0.30124546       0.52973631 </v>
    <v>       0.81576398       0.33244432       0.52919714 </v>
    <v>       0.85103695       0.38354215       0.48630875 </v>
    <v>       0.81732365       0.40248957       0.44433579 </v>
    <v>       0.75160425       0.37118603       0.44399192 </v>
    <v>       0.64195365       0.37825367       0.52273675 </v>
    <v>       0.61043780       0.41212142       0.52274872 </v>
    <v>       0.55402603       0.39157291       0.48659137 </v>
    <v>       0.53099343       0.33605837       0.44918511 </v>
    <v>       0.56195201       0.30177610       0.44901512 </v>
    <v>       0.04973437       0.49220332       0.47713308 </v>
    <v>       0.00971276       0.51804464       0.46815344 </v>
    <v>       0.03253317       0.58638003       0.45678798 </v>
    <v>       0.45315274       0.48788461       0.47361341 </v>
    <v>       0.46184244       0.45747560       0.41777488 </v>
    <v>       0.43867353       0.45798483       0.34814056 </v>
    <v>       0.45501472       0.89280564       0.47289480 </v>
    <v>       0.48694685       0.93277682       0.41801695 </v>
    <v>       0.48925957       0.91046635       0.34858169 </v>
    <v>       0.93845857       0.32555669       0.50676765 </v>
    <v>       0.96118244       0.39373756       0.49434151 </v>
    <v>       0.92111551       0.41945764       0.48475131 </v>
    <v>       0.53443804       0.45696681       0.60981602 </v>
    <v>       0.51109522       0.45730148       0.54021557 </v>
    <v>       0.51960370       0.42670800       0.48443540 </v>
    <v>       0.48038217       0.00202634       0.60964906 </v>
    <v>       0.48242920       0.97973795       0.54012146 </v>
    <v>       0.51432164       0.01970753       0.48522875 </v>
   </varray>
  </structure>
  <varray name="forces" >
   <v>      -0.00218060       0.00100769       0.00131985 </v>
   <v>      -0.00036852       0.00015403       0.00042103 </v>
   <v>       0.00179206       0.00013470      -0.00026479 </v>
   <v>       0.00240975       0.00324100      -0.00008711 </v>
   <v>      -0.00378052      -0.00227019       0.00348690 </v>
   <v>       0.00019397      -0.00273482       0.00158293 </v>
   <v>      -0.00127065      -0.00119178       0.00081092 </v>
   <v>       0.00065126      -0.00005236      -0.00081456 </v>
   <v>      -0.00086212      -0.00094898      -0.00164327 </v>
   <v>      -0.00066221       0.00200498       0.00119815 </v>
   <v>       0.00260726      -0.00099750      -0.00076564 </v>
   <v>       0.00083520      -0.00023531      -0.00039083 </v>
   <v>       0.00204933      -0.00178979       0.00015023 </v>
   <v>       0.00015455       0.00116910      -0.00176815 </v>
   <v>       0.00106598      -0.00045286       0.00294564 </v>
   <v>      -0.00214247      -0.00051321      -0.00050647 </v>
   <v>       0.00028426      -0.00200715      -0.00094268 </v>
   <v>      -0.00154907      -0.00045098      -0.00049657 </v>
   <v>       0.00101239       0.00106185      -0.00040312 </v>
   <v>      -0.00146006      -0.00060272       0.00077713 </v>
   <v>       0.00082405       0.00006862      -0.00007089 </v>
   <v>       0.00140971      -0.00125867      -0.00059067 </v>
   <v>      -0.00441264       0.00246509       0.00353114 </v>
   <v>       0.00214110       0.00154824      -0.00070427 </v>
   <v>      -0.00464513       0.00472422       0.00196491 </v>
   <v>       0.00085908      -0.00168378       0.00368210 </v>
   <v>       0.00090976       0.00010334       0.00396166 </v>
   <v>       0.00262812      -0.00213214       0.00238824 </v>
   <v>       0.00047704      -0.00193115       0.00136956 </v>
   <v>       0.00215439       0.00028790       0.00134975 </v>
   <v>      -0.00199212      -0.00376721      -0.00008367 </v>
   <v>       0.00133095       0.00136223      -0.00179938 </v>
   <v>       0.00099168       0.00106445       0.00182541 </v>
   <v>       0.00056569       0.00055248      -0.00567310 </v>
   <v>       0.00152784       0.00315730      -0.00151148 </v>
   <v>       0.00083224      -0.00089925      -0.00381237 </v>
   <v>       0.00231320       0.00121898      -0.00387098 </v>
   <v>      -0.00061383      -0.00056140      -0.00126672 </v>
   <v>      -0.00080441       0.00024963       0.00037421 </v>
   <v>       0.00053630      -0.00233444       0.00236451 </v>
   <v>       0.00036087       0.00054388       0.00177341 </v>
   <v>      -0.00470303      -0.00003459      -0.00003744 </v>
   <v>      -0.00359163      -0.00431305      -0.00305362 </v>
   <v>       0.00471212       0.00058175       0.00128421 </v>
   <v>       0.01212301       0.02100239      -0.00475116 </v>
   <v>      -0.01636169       0.00267481      -0.00776189 </v>
   <v>       0.00143855      -0.01014879      -0.00906230 </v>
   <v>      -0.00973740      -0.01502247       0.00071400 </v>
   <v>       0.01333898       0.00150853       0.01199901 </v>
   <v>      -0.00913484       0.01150900       0.00824988 </v>
   <v>       0.01217078       0.00281343       0.00322967 </v>
   <v>      -0.01130178       0.00752842       0.00180335 </v>
   <v>      -0.00110288      -0.01268949      -0.00095754 </v>
   <v>      -0.00635818       0.01494955       0.00244532 </v>
   <v>      -0.00468576      -0.00423322       0.00799714 </v>
   <v>       0.00231569       0.02055972      -0.00208589 </v>
   <v>       0.00073284      -0.00737005      -0.00910417 </v>
   <v>       0.00712390       0.01122072      -0.00362426 </v>
   <v>      -0.01346211       0.00187332       0.00035288 </v>
   <v>       0.00560903       0.01466665      -0.00149969 </v>
   <v>      -0.02511015      -0.01287647       0.00049566 </v>
   <v>       0.01410128      -0.00453450       0.00534261 </v>
   <v>      -0.00214480      -0.01148972      -0.00028031 </v>
   <v>       0.00744231      -0.01059027      -0.00218155 </v>
   <v>      -0.01080618       0.00201529      -0.00856637 </v>
   <v>       0.01805797      -0.01303641      -0.00388564 </v>
   <v>      -0.00629160       0.00811168       0.00967145 </v>
   <v>       0.01100657       0.00100574       0.00227081 </v>
   <v>      -0.01334394      -0.00450579      -0.00420804 </v>
   <v>       0.00946366      -0.00477655      -0.00210787 </v>
   <v>       0.00439354       0.01220586       0.00003258 </v>
   <v>       0.00482658      -0.00999824      -0.00095765 </v>
   <v>       0.00094849       0.00987546      -0.00775903 </v>
   <v>       0.00043775      -0.02538475      -0.00173424 </v>
   <v>       0.00070765       0.00803254       0.00697233 </v>
   <v>      -0.00323453      -0.01031581       0.00134238 </v>
   <v>       0.01022378      -0.00162966      -0.00078924 </v>
   <v>      -0.00561711      -0.01409853       0.00216843 </v>
   <v>       0.02340678       0.01442973      -0.00168719 </v>
   <v>      -0.01618702       0.00328747      -0.00283252 </v>
   <v>       0.00605940       0.01456405       0.00104432 </v>
   <v>      -0.00509077       0.01240467       0.00426257 </v>
   <v>       0.00909218      -0.00256033       0.00818627 </v>
   <v>      -0.01959546       0.00940347       0.00140505 </v>
   <v>       0.00496107      -0.00607355      -0.00769551 </v>
   <v>      -0.01115855      -0.00032227      -0.00282409 </v>
   <v>       0.01953719       0.01788289      -0.00559651 </v>
   <v>      -0.01523355      -0.00753633      -0.00679539 </v>
   <v>       0.00191206      -0.00155964       0.00422568 </v>
   <v>      -0.01789358       0.00800712      -0.00904079 </v>
   <v>       0.00888723      -0.01288078       0.00013204 </v>
   <v>      -0.00081910       0.00082601      -0.00074950 </v>
   <v>       0.00292151      -0.02772433       0.00123955 </v>
   <v>       0.00893304       0.01790391       0.00081201 </v>
   <v>      -0.00174970       0.00153445      -0.00157874 </v>
   <v>       0.00058070      -0.00499030      -0.00275062 </v>
   <v>       0.01406834       0.00054929       0.00324648 </v>
   <v>      -0.02456897      -0.02049829       0.00419635 </v>
   <v>      -0.00366820       0.00104524       0.00381856 </v>
   <v>      -0.00915252       0.01452117       0.00554625 </v>
   <v>       0.02683601      -0.01518818       0.00319478 </v>
   <v>       0.00276915      -0.00006084      -0.00319772 </v>
   <v>      -0.00507619      -0.01286370      -0.00356303 </v>
   <v>      -0.00013157       0.02350858       0.00522694 </v>
  </varray>
  <varray name="stress" >
   <v>      -0.03406370      -0.00958539      -0.00199509 </v>
   <v>      -0.00958539      -0.01613383      -0.00309578 </v>
   <v>      -0.00199509      -0.00309577      -0.18177237 </v>
  </varray>
  <energy>
   <i name="e_fr_energy">   -708.56984467 </i>
   <i name="e_wo_entrp">   -708.56984467 </i>
   <i name="e_0_energy">     -0.00000000 </i>
  </energy>
  <time name="totalsc"> 5347.13 5408.03</time>
  <eigenvalues>
   <array>
    <dimension dim="1">band</dimension>
    <dimension dim="2">kpoint</dimension>
    <dimension dim="3">spin</dimension>
    <field>eigene</field>
    <field>occ</field>
    <set>
     <set comment="spin 1">
      <set comment="kpoint 1">
       <r>  -24.0552    1.0000 </r>
       <r>  -24.0517    1.0000 </r>
       <r>  -23.9333    1.0000 </r>
       <r>  -23.8766    1.0000 </r>
       <r>  -23.8728    1.0000 </r>
       <r>  -22.0811    1.0000 </r>
       <r>  -22.0227    1.0000 </r>
       <r>  -22.0176    1.0000 </r>
       <r>  -21.0916    1.0000 </r>
       <r>  -21.0605    1.0000 </r>
       <r>  -21.0394    1.0000 </r>
       <r>  -21.0091    1.0000 </r>
       <r>  -20.7324    1.0000 </r>
       <r>  -20.5617    1.0000 </r>
       <r>  -19.8003    1.0000 </r>
       <r>  -19.7675    1.0000 </r>
       <r>  -19.4203    1.0000 </r>
       <r>  -18.8161    1.0000 </r>
       <r>  -18.7960    1.0000 </r>
       <r>  -18.2929    1.0000 </r>
       <r>  -18.2897    1.0000 </r>
       <r>  -18.2613    1.0000 </r>
       <r>  -18.2074    1.0000 </r>
       <r>  -18.1894    1.0000 </r>
       <r>  -18.1035    1.0000 </r>
       <r>  -17.9339    1.0000 </r>
       <r>  -17.9269    1.0000 </r>
       <r>  -17.9251    1.0000 </r>
       <r>  -17.8765    1.0000 </r>
       <r>  -17.8575    1.0000 </r>
       <r>  -17.7410    1.0000 </r>
       <r>  -17.0973    1.0000 </r>
       <r>  -16.3339    1.0000 </r>
       <r>  -16.2949    1.0000 </r>
       <r>  -16.2202    1.0000 </r>
       <r>  -16.2041    1.0000 </r>
       <r>  -16.0084    1.0000 </r>
       <r>  -15.3142    1.0000 </r>
       <r>  -15.0973    1.0000 </r>
       <r>  -15.0736    1.0000 </r>
       <r>  -15.0316    1.0000 </r>
       <r>  -14.9960    1.0000 </r>
       <r>  -14.8205    1.0000 </r>
       <r>  -14.6806    1.0000 </r>
       <r>  -14.4579    1.0000 </r>
       <r>  -14.4426    1.0000 </r>
       <r>  -14.3922    1.0000 </r>
       <r>  -14.3819    1.0000 </r>
       <r>  -14.1875    1.0000 </r>
       <r>  -13.9824    1.0000 </r>
       <r>  -13.9565    1.0000 </r>
       <r>  -13.6838    1.0000 </r>
       <r>  -13.5863    1.0000 </r>
       <r>  -12.9481    1.0000 </r>
       <r>  -12.9426    1.0000 </r>
       <r>  -12.8370    1.0000 </r>
       <r>  -12.8284    1.0000 </r>
       <r>  -12.5669    1.0000 </r>
       <r>  -12.4663    1.0000 </r>
       <r>  -12.4531    1.0000 </r>
       <r>  -12.1057    1.0000 </r>
       <r>  -12.0663    1.0000 </r>
       <r>  -11.8419    1.0000 </r>
       <r>  -11.7982    1.0000 </r>
       <r>  -11.6126    1.0000 </r>
       <r>  -11.5644    1.0000 </r>
       <r>  -11.1488    1.0000 </r>
       <r>  -11.1193    1.0000 </r>
       <r>  -10.8322    1.0000 </r>
       <r>  -10.8295    1.0000 </r>
       <r>  -10.7206    1.0000 </r>
       <r>  -10.7151    1.0000 </r>
       <r>  -10.5158    1.0000 </r>
       <r>  -10.4401    1.0000 </r>
       <r>  -10.4369    1.0000 </r>
       <r>  -10.4328    1.0000 </r>
       <r>  -10.3852    1.0000 </r>
       <r>  -10.3793    1.0000 </r>
       <r>  -10.3393    1.0000 </r>
       <r>  -10.1520    1.0000 </r>
       <r>  -10.1442    1.0000 </r>
       <r>  -10.0452    1.0000 </r>
       <r>   -9.9498    1.0000 </r>
       <r>   -9.9237    1.0000 </r>
       <r>   -9.8891    1.0000 </r>
       <r>   -9.8403    1.0000 </r>
       <r>   -9.8066    1.0000 </r>
       <r>   -9.8023    1.0000 </r>
       <r>   -9.7892    1.0000 </r>
       <r>   -9.7471    1.0000 </r>
       <r>   -9.7391    1.0000 </r>
       <r>   -9.7361    1.0000 </r>
       <r>   -9.6400    1.0000 </r>
       <r>   -9.6149    1.0000 </r>
       <r>   -9.4470    1.0000 </r>
       <r>   -9.4101    1.0000 </r>
       <r>   -9.2778    1.0000 </r>
       <r>   -9.2466    1.0000 </r>
       <r>   -9.2314    1.0000 </r>
       <r>   -9.1050    1.0000 </r>
       <r>   -9.0496    1.0000 </r>
       <r>   -9.0315    1.0000 </r>
       <r>   -9.0110    1.0000 </r>
       <r>   -8.9969    1.0000 </r>
       <r>   -8.9764    1.0000 </r>
       <r>   -8.9456    1.0000 </r>
       <r>   -8.8832    1.0000 </r>
       <r>   -8.8237    1.0000 </r>
       <r>   -8.8147    1.0000 </r>
       <r>   -8.7520    1.0000 </r>
       <r>   -8.6281    1.0000 </r>
       <r>   -8.5850    1.0000 </r>
       <r>   -8.4527    1.0000 </r>
       <r>   -8.3981    1.0000 </r>
       <r>   -8.2769    1.0000 </r>
       <r>   -8.1824    1.0000 </r>
       <r>   -8.0840    1.0000 </r>
       <r>   -8.0477    1.0000 </r>
       <r>   -7.9983    1.0000 </r>
       <r>   -7.8585    1.0000 </r>
       <r>   -7.8023    1.0000 </r>
       <r>   -7.7743    1.0000 </r>
       <r>   -7.7447    1.0000 </r>
       <r>   -7.6816    1.0000 </r>
       <r>   -7.5528    1.0000 </r>
       <r>   -7.5167    1.0000 </r>
       <r>   -7.2664    1.0000 </r>
       <r>   -7.0055    1.0000 </r>
       <r>   -6.5298    1.0000 </r>
       <r>   -6.5019    1.0000 </r>
       <r>   -6.4782    1.0000 </r>
       <r>   -6.4655    1.0000 </r>
       <r>   -6.2579    1.0000 </r>
       <r>   -6.1922    1.0000 </r>
       <r>   -6.1169    1.0000 </r>
       <r>   -6.0573    1.0000 </r>
       <r>   -6.0231    1.0000 </r>
       <r>   -5.9584    1.0000 </r>
       <r>   -5.9404    1.0000 </r>
       <r>   -5.8510    1.0000 </r>
       <r>   -5.8490    1.0000 </r>
       <r>   -5.8247    1.0000 </r>
       <r>   -5.2853    1.0000 </r>
       <r>   -5.2492    1.0000 </r>
       <r>   -5.1003    1.0000 </r>
       <r>   -5.0463    1.0000 </r>
       <r>   -5.0238    1.0000 </r>
       <r>   -4.4355    1.0000 </r>
       <r>   -4.0352    1.0000 </r>
       <r>   -2.2054    0.0000 </r>
       <r>   -2.1202    0.0000 </r>
       <r>   -1.7528    0.0000 </r>
       <r>   -1.4412    0.0000 </r>
       <r>   -1.3964    0.0000 </r>
       <r>   -1.2645    0.0000 </r>
       <r>   -1.2615    0.0000 </r>
       <r>   -1.1893    0.0000 </r>
       <r>   -1.1644    0.0000 </r>
       <r>   -1.1279    0.0000 </r>
       <r>   -0.7060    0.0000 </r>
       <r>   -0.6853    0.0000 </r>
       <r>   -0.6832    0.0000 </r>
       <r>   -0.6679    0.0000 </r>
       <r>   -0.2540    0.0000 </r>
       <r>   -0.1556    0.0000 </r>
       <r>   -0.1468    0.0000 </r>
       <r>   -0.1144    0.0000 </r>
       <r>   -0.0618    0.0000 </r>
       <r>    0.0123    0.0000 </r>
       <r>    0.0380    0.0000 </r>
       <r>    0.1044    0.0000 </r>
       <r>    0.1832    0.0000 </r>
       <r>    0.2139    0.0000 </r>
       <r>    0.4140    0.0000 </r>
       <r>    0.4199    0.0000 </r>
       <r>    0.4754    0.0000 </r>
       <r>    0.5463    0.0000 </r>
       <r>    0.5465    0.0000 </r>
       <r>    0.5713    0.0000 </r>
       <r>    0.5823    0.0000 </r>
       <r>    0.6046    0.0000 </r>
       <r>    0.7050    0.0000 </r>
       <r>    0.7482    0.0000 </r>
       <r>    0.7782    0.0000 </r>
       <r>    0.8247    0.0000 </r>
       <r>    0.8343    0.0000 </r>
       <r>    0.8567    0.0000 </r>
       <r>    0.9000    0.0000 </r>
       <r>    0.9162    0.0000 </r>
       <r>    0.9425    0.0000 </r>
       <r>    0.9480    0.0000 </r>
       <r>    0.9696    0.0000 </r>
       <r>    0.9760    0.0000 </r>
       <r>    0.9932    0.0000 </r>
       <r>    1.0127    0.0000 </r>
       <r>    1.0603    0.0000 </r>
       <r>    1.0887    0.0000 </r>
       <r>    1.1436    0.0000 </r>
       <r>    1.1800    0.0000 </r>
       <r>    1.1937    0.0000 </r>
       <r>    1.2290    0.0000 </r>
       <r>    1.2329    0.0000 </r>
       <r>    1.2712    0.0000 </r>
       <r>    1.3063    0.0000 </r>
       <r>    1.3477    0.0000 </r>
       <r>    1.3987    0.0000 </r>
       <r>    1.4283    0.0000 </r>
       <r>    1.4598    0.0000 </r>
      </set>
      <set comment="kpoint 2">
       <r>  -24.0552    1.0000 </r>
       <r>  -24.0517    1.0000 </r>
       <r>  -23.9333    1.0000 </r>
       <r>  -23.8766    1.0000 </r>
       <r>  -23.8728    1.0000 </r>
       <r>  -22.0811    1.0000 </r>
       <r>  -22.0227    1.0000 </r>
       <r>  -22.0176    1.0000 </r>
       <r>  -21.0916    1.0000 </r>
       <r>  -21.0605    1.0000 </r>
       <r>  -21.0394    1.0000 </r>
       <r>  -21.0092    1.0000 </r>
       <r>  -20.7321    1.0000 </r>
       <r>  -20.5620    1.0000 </r>
       <r>  -19.8002    1.0000 </r>
       <r>  -19.7671    1.0000 </r>
       <r>  -19.4211    1.0000 </r>
       <r>  -18.8159    1.0000 </r>
       <r>  -18.7953    1.0000 </r>
       <r>  -18.2935    1.0000 </r>
       <r>  -18.2904    1.0000 </r>
       <r>  -18.2607    1.0000 </r>
       <r>  -18.2073    1.0000 </r>
       <r>  -18.1891    1.0000 </r>
       <r>  -18.1036    1.0000 </r>
       <r>  -17.9406    1.0000 </r>
       <r>  -17.9298    1.0000 </r>
       <r>  -17.9193    1.0000 </r>
       <r>  -17.8743    1.0000 </r>
       <r>  -17.8572    1.0000 </r>
       <r>  -17.7392    1.0000 </r>
       <r>  -17.0982    1.0000 </r>
       <r>  -16.3339    1.0000 </r>
       <r>  -16.2948    1.0000 </r>
       <r>  -16.2202    1.0000 </r>
       <r>  -16.2047    1.0000 </r>
       <r>  -16.0069    1.0000 </r>
       <r>  -15.3158    1.0000 </r>
       <r>  -15.0974    1.0000 </r>
       <r>  -15.0745    1.0000 </r>
       <r>  -15.0300    1.0000 </r>
       <r>  -14.9953    1.0000 </r>
       <r>  -14.8202    1.0000 </r>
       <r>  -14.6807    1.0000 </r>
       <r>  -14.4598    1.0000 </r>
       <r>  -14.4442    1.0000 </r>
       <r>  -14.3902    1.0000 </r>
       <r>  -14.3804    1.0000 </r>
       <r>  -14.1873    1.0000 </r>
       <r>  -13.9826    1.0000 </r>
       <r>  -13.9571    1.0000 </r>
       <r>  -13.6835    1.0000 </r>
       <r>  -13.5864    1.0000 </r>
       <r>  -12.9480    1.0000 </r>
       <r>  -12.9425    1.0000 </r>
       <r>  -12.8372    1.0000 </r>
       <r>  -12.8285    1.0000 </r>
       <r>  -12.5667    1.0000 </r>
       <r>  -12.4662    1.0000 </r>
       <r>  -12.4531    1.0000 </r>
       <r>  -12.1057    1.0000 </r>
       <r>  -12.0664    1.0000 </r>
       <r>  -11.8418    1.0000 </r>
       <r>  -11.7979    1.0000 </r>
       <r>  -11.6127    1.0000 </r>
       <r>  -11.5647    1.0000 </r>
       <r>  -11.1487    1.0000 </r>
       <r>  -11.1194    1.0000 </r>
       <r>  -10.8321    1.0000 </r>
       <r>  -10.8295    1.0000 </r>
       <r>  -10.7207    1.0000 </r>
       <r>  -10.7151    1.0000 </r>
       <r>  -10.5157    1.0000 </r>
       <r>  -10.4405    1.0000 </r>
       <r>  -10.4371    1.0000 </r>
       <r>  -10.4325    1.0000 </r>
       <r>  -10.3849    1.0000 </r>
       <r>  -10.3794    1.0000 </r>
       <r>  -10.3389    1.0000 </r>
       <r>  -10.1525    1.0000 </r>
       <r>  -10.1444    1.0000 </r>
       <r>  -10.0447    1.0000 </r>
       <r>   -9.9497    1.0000 </r>
       <r>   -9.9238    1.0000 </r>
       <r>   -9.8891    1.0000 </r>
       <r>   -9.8403    1.0000 </r>
       <r>   -9.8065    1.0000 </r>
       <r>   -9.8023    1.0000 </r>
       <r>   -9.7892    1.0000 </r>
       <r>   -9.7471    1.0000 </r>
       <r>   -9.7392    1.0000 </r>
       <r>   -9.7361    1.0000 </r>
       <r>   -9.6399    1.0000 </r>
       <r>   -9.6147    1.0000 </r>
       <r>   -9.4470    1.0000 </r>
       <r>   -9.4107    1.0000 </r>
       <r>   -9.2778    1.0000 </r>
       <r>   -9.2466    1.0000 </r>
       <r>   -9.2314    1.0000 </r>
       <r>   -9.1049    1.0000 </r>
       <r>   -9.0496    1.0000 </r>
       <r>   -9.0318    1.0000 </r>
       <r>   -9.0108    1.0000 </r>
       <r>   -8.9968    1.0000 </r>
       <r>   -8.9764    1.0000 </r>
       <r>   -8.9455    1.0000 </r>
       <r>   -8.8832    1.0000 </r>
       <r>   -8.8260    1.0000 </r>
       <r>   -8.8122    1.0000 </r>
       <r>   -8.7519    1.0000 </r>
       <r>   -8.6281    1.0000 </r>
       <r>   -8.5848    1.0000 </r>
       <r>   -8.4528    1.0000 </r>
       <r>   -8.3988    1.0000 </r>
       <r>   -8.2762    1.0000 </r>
       <r>   -8.1823    1.0000 </r>
       <r>   -8.0840    1.0000 </r>
       <r>   -8.0481    1.0000 </r>
       <r>   -7.9982    1.0000 </r>
       <r>   -7.8584    1.0000 </r>
       <r>   -7.8025    1.0000 </r>
       <r>   -7.7742    1.0000 </r>
       <r>   -7.7448    1.0000 </r>
       <r>   -7.6815    1.0000 </r>
       <r>   -7.5529    1.0000 </r>
       <r>   -7.5170    1.0000 </r>
       <r>   -7.2657    1.0000 </r>
       <r>   -7.0058    1.0000 </r>
       <r>   -6.5297    1.0000 </r>
       <r>   -6.5019    1.0000 </r>
       <r>   -6.4782    1.0000 </r>
       <r>   -6.4655    1.0000 </r>
       <r>   -6.2578    1.0000 </r>
       <r>   -6.1922    1.0000 </r>
       <r>   -6.1169    1.0000 </r>
       <r>   -6.0576    1.0000 </r>
       <r>   -6.0234    1.0000 </r>
       <r>   -5.9583    1.0000 </r>
       <r>   -5.9404    1.0000 </r>
       <r>   -5.8586    1.0000 </r>
       <r>   -5.8429    1.0000 </r>
       <r>   -5.8223    1.0000 </r>
       <r>   -5.2855    1.0000 </r>
       <r>   -5.2497    1.0000 </r>
       <r>   -5.1004    1.0000 </r>
       <r>   -5.0462    1.0000 </r>
       <r>   -5.0239    1.0000 </r>
       <r>   -4.4347    1.0000 </r>
       <r>   -4.0357    1.0000 </r>
       <r>   -2.2052    0.0000 </r>
       <r>   -2.1198    0.0000 </r>
       <r>   -1.7536    0.0000 </r>
       <r>   -1.4412    0.0000 </r>
       <r>   -1.3964    0.0000 </r>
       <r>   -1.2650    0.0000 </r>
       <r>   -1.2615    0.0000 </r>
       <r>   -1.1945    0.0000 </r>
       <r>   -1.1621    0.0000 </r>
       <r>   -1.1235    0.0000 </r>
[...]
       <r>   -21.4929     0.0000    16.0000 </r>
       <r>   -21.3992     0.0000    16.0000 </r>
       <r>   -21.3056     0.0000    16.0000 </r>
       <r>   -21.2120     0.0000    16.0000 </r>
       <r>   -21.1183     0.0003    16.0000 </r>
       <r>   -21.0247    68.7532    22.4380 </r>
       <r>   -20.9310     4.8945    24.0000 </r>
       <r>   -20.8374     0.0000    24.0000 </r>
       <r>   -20.7438     0.0676    24.0063 </r>
       <r>   -20.6501    20.0978    25.9835 </r>
       <r>   -20.5565    17.0878    27.9694 </r>
       <r>   -20.4629     0.0000    28.0000 </r>
       <r>   -20.3692     0.0000    28.0000 </r>
       <r>   -20.2756     0.0000    28.0000 </r>
       <r>   -20.1819     0.0000    28.0000 </r>
       <r>   -20.0883     0.0000    28.0000 </r>
       <r>   -19.9947     0.0000    28.0000 </r>
       <r>   -19.9010     0.0000    28.0000 </r>
       <r>   -19.8074     0.5604    28.0525 </r>
       <r>   -19.7137    19.4034    30.4427 </r>
       <r>   -19.6201    14.2577    32.0029 </r>
       <r>   -19.5265    15.4868    33.5362 </r>
       <r>   -19.4328     3.0902    33.8564 </r>
       <r>   -19.3392     0.0000    34.0000 </r>
       <r>   -19.2455     0.0000    34.0000 </r>
       <r>   -19.1519     0.0000    34.0000 </r>
       <r>   -19.0583     0.0000    34.0000 </r>
       <r>   -18.9646     0.0000    34.0000 </r>
       <r>   -18.8710     0.0000    34.0000 </r>
       <r>   -18.7773    23.1996    36.1724 </r>
       <r>   -18.6837     2.0538    36.4257 </r>
       <r>   -18.5901    10.3711    37.4378 </r>
       <r>   -18.4964     8.7288    38.4181 </r>
       <r>   -18.4028     9.9150    39.5457 </r>
       <r>   -18.3091    18.8529    41.3488 </r>
       <r>   -18.2155    18.0877    43.4462 </r>
       <r>   -18.1219    52.6689    48.7680 </r>
       <r>   -18.0282    19.1964    51.7708 </r>
       <r>   -17.9346    19.0239    53.8502 </r>
       <r>   -17.8409    43.1328    58.0728 </r>
       <r>   -17.7473    12.1619    60.0111 </r>
       <r>   -17.6537     1.9192    60.2635 </r>
       <r>   -17.5600     1.2003    60.4124 </r>
       <r>   -17.4664     4.1820    60.8250 </r>
       <r>   -17.3727     8.9156    61.9699 </r>
       <r>   -17.2791    11.4273    63.0715 </r>
       <r>   -17.1855     2.0087    63.6215 </r>
       <r>   -17.0918     3.3652    63.9818 </r>
       <r>   -16.9982     0.0000    64.0000 </r>
       <r>   -16.9046     0.0000    64.0000 </r>
       <r>   -16.8109     0.0000    64.0000 </r>
       <r>   -16.7173     0.0000    64.0000 </r>
       <r>   -16.6236     0.0000    64.0000 </r>
       <r>   -16.5300     0.0000    64.0000 </r>
       <r>   -16.4364     0.0000    64.0000 </r>
       <r>   -16.3427     4.2229    64.3954 </r>
       <r>   -16.2491    41.4311    69.6333 </r>
       <r>   -16.1554    24.1982    72.0000 </r>
       <r>   -16.0618     0.0000    72.0000 </r>
       <r>   -15.9682     2.0962    72.1963 </r>
       <r>   -15.8745     1.6145    72.3845 </r>
       <r>   -15.7809     2.2364    72.6097 </r>
       <r>   -15.6872    10.3582    73.8547 </r>
       <r>   -15.5936     7.5870    74.7105 </r>
       <r>   -15.5000     6.8294    75.5418 </r>
       <r>   -15.4063     1.4838    75.7056 </r>
       <r>   -15.3127     2.5344    75.9707 </r>
       <r>   -15.2190     0.0000    76.0000 </r>
       <r>   -15.1254    17.0944    77.6007 </r>
       <r>   -15.0318    21.2418    79.7395 </r>
       <r>   -14.9381    22.1020    82.2043 </r>
       <r>   -14.8445    12.7562    83.5954 </r>
       <r>   -14.7508    23.5633    86.2065 </r>
       <r>   -14.6572    20.2586    88.4312 </r>
       <r>   -14.5636     8.3734    89.3511 </r>
       <r>   -14.4699    14.7368    90.9809 </r>
       <r>   -14.3763    12.5009    92.4381 </r>
       <r>   -14.2826    18.1672    94.4192 </r>
       <r>   -14.1890    14.3331    96.0761 </r>
       <r>   -14.0954    26.9015    98.8195 </r>
       <r>   -14.0017     9.8066   100.3022 </r>
       <r>   -13.9081     9.9282   102.0000 </r>
       <r>   -13.8145     0.0000   102.0000 </r>
       <r>   -13.7208     0.0000   102.0000 </r>
       <r>   -13.6272    18.5918   103.7409 </r>
       <r>   -13.5335    15.9356   106.0000 </r>
       <r>   -13.4399     0.0000   106.0000 </r>
       <r>   -13.3463     0.0000   106.0000 </r>
       <r>   -13.2526     0.0000   106.0000 </r>
       <r>   -13.1590     0.0000   106.0000 </r>
       <r>   -13.0653     0.0000   106.0000 </r>
       <r>   -12.9717     0.0007   106.0001 </r>
       <r>   -12.8781    60.0026   111.6187 </r>
       <r>   -12.7844    14.0157   114.0000 </r>
       <r>   -12.6908     0.0000   114.0000 </r>
       <r>   -12.5971     0.0000   114.0000 </r>
       <r>   -12.5035    22.6907   116.1247 </r>
       <r>   -12.4099    36.2880   120.0000 </r>
       <r>   -12.3162     0.0000   120.0000 </r>
       <r>   -12.2226     0.0000   120.0000 </r>
       <r>   -12.1289     0.0017   120.0002 </r>
       <r>   -12.0353    42.7154   124.0000 </r>
       <r>   -11.9417     0.0000   124.0000 </r>
       <r>   -11.8480     0.3614   124.0338 </r>
       <r>   -11.7544    23.3010   126.4339 </r>
       <r>   -11.6607    27.4743   129.2082 </r>
       <r>   -11.5671    25.7149   131.8754 </r>
       <r>   -11.4735     0.0000   132.0000 </r>
       <r>   -11.3798     0.0000   132.0000 </r>
       <r>   -11.2862     0.0000   132.0000 </r>
       <r>   -11.1925     0.0000   132.0000 </r>
       <r>   -11.0989    42.7092   135.9993 </r>
       <r>   -11.0053     0.0000   136.0000 </r>
       <r>   -10.9116     0.0000   136.0000 </r>
       <r>   -10.8180    27.1989   138.5469 </r>
       <r>   -10.7243    30.9318   141.9485 </r>
       <r>   -10.6307     2.0796   144.0000 </r>
       <r>   -10.5371     0.0030   144.0003 </r>
       <r>   -10.4434    57.2101   149.3574 </r>
       <r>   -10.3498    43.0188   154.5487 </r>
       <r>   -10.2562    25.4876   157.5894 </r>
       <r>   -10.1625    38.5762   161.4981 </r>
       <r>   -10.0689     1.5883   162.0000 </r>
       <r>    -9.9752    20.9523   163.9620 </r>
       <r>    -9.8816    47.3735   168.8709 </r>
       <r>    -9.7880    64.3825   176.0290 </r>
       <r>    -9.6943    70.4235   184.0000 </r>
       <r>    -9.6007    27.1743   186.5446 </r>
       <r>    -9.5070    24.6563   189.3939 </r>
       <r>    -9.4134    21.9200   191.5862 </r>
       <r>    -9.3198     0.0000   192.0000 </r>
       <r>    -9.2261    61.9941   197.8051 </r>
       <r>    -9.1325     0.0001   198.0000 </r>
       <r>    -9.0388    56.6015   203.3001 </r>
       <r>    -8.9452    68.4176   210.4066 </r>
       <r>    -8.8516    43.2220   215.1842 </r>
       <r>    -8.7579    11.3791   216.5330 </r>
       <r>    -8.6643    24.2636   219.9990 </r>
       <r>    -8.5706    30.6836   222.8753 </r>
       <r>    -8.4770    20.6703   225.6245 </r>
       <r>    -8.3834    23.7898   227.9985 </r>
       <r>    -8.2897     0.0313   228.0029 </r>
       <r>    -8.1961    15.3622   229.5060 </r>
       <r>    -8.1024    41.0703   233.5859 </r>
       <r>    -8.0088    24.2698   236.0245 </r>
       <r>    -7.9152    16.0763   238.0000 </r>
       <r>    -7.8215    23.4424   240.1951 </r>
       <r>    -7.7279    55.0855   245.9825 </r>
       <r>    -7.6342    21.3598   248.0001 </r>
       <r>    -7.5406    19.3459   250.3794 </r>
       <r>    -7.4470     7.9705   252.0000 </r>
       <r>    -7.3533     0.0000   252.0000 </r>
       <r>    -7.2597     1.2041   252.1127 </r>
       <r>    -7.1660     4.9307   252.6624 </r>
       <r>    -7.0724    22.2967   255.2409 </r>
       <r>    -6.9788     4.9826   256.0000 </r>
       <r>    -6.8851     0.0000   256.0000 </r>
       <r>    -6.7915     0.0000   256.0000 </r>
       <r>    -6.6979     0.0000   256.0000 </r>
       <r>    -6.6042     0.0000   256.0000 </r>
       <r>    -6.5106    26.5530   258.4864 </r>
       <r>    -6.4169    42.7170   264.0000 </r>
       <r>    -6.3233     0.0000   264.0000 </r>
       <r>    -6.2297    13.4396   265.2585 </r>
       <r>    -6.1360    21.8901   268.0650 </r>
       <r>    -6.0424    40.3211   272.7901 </r>
       <r>    -5.9487    12.1400   274.9880 </r>
       <r>    -5.8551    37.6314   280.2945 </r>
       <r>    -5.7615     9.5203   282.2127 </r>
       <r>    -5.6678     1.8266   282.4047 </r>
       <r>    -5.5742     8.9433   283.2708 </r>
       <r>    -5.4805     8.7023   284.2991 </r>
       <r>    -5.3869    11.1349   285.5101 </r>
       <r>    -5.2933     3.1526   285.8290 </r>
       <r>    -5.1996    21.3276   288.0000 </r>
       <r>    -5.1060     5.0392   288.4719 </r>
       <r>    -5.0123    42.5175   293.9813 </r>
       <r>    -4.9187     0.0000   294.0000 </r>
       <r>    -4.8251     0.0000   294.0000 </r>
       <r>    -4.7314     0.0000   294.0000 </r>
       <r>    -4.6378     0.0000   294.0000 </r>
       <r>    -4.5441     0.0000   294.0000 </r>
       <r>    -4.4505     0.0124   294.0012 </r>
       <r>    -4.3569     3.9536   294.3714 </r>
       <r>    -4.2632    10.3091   295.3656 </r>
       <r>    -4.1696    11.4749   296.6756 </r>
       <r>    -4.0759     6.9328   297.6853 </r>
       <r>    -3.9823     2.8421   298.0000 </r>
       <r>    -3.8887     0.0000   298.0000 </r>
       <r>    -3.7950     0.0000   298.0000 </r>
       <r>    -3.7014     0.0000   298.0000 </r>
       <r>    -3.6078     0.0000   298.0000 </r>
       <r>    -3.5141     0.0000   298.0000 </r>
       <r>    -3.4205     0.0000   298.0000 </r>
       <r>    -3.3268     0.0000   298.0000 </r>
       <r>    -3.2332     0.0000   298.0000 </r>
       <r>    -3.1396     0.0000   298.0000 </r>
       <r>    -3.0459     0.0000   298.0000 </r>
       <r>    -2.9523     0.0000   298.0000 </r>
       <r>    -2.8586     0.0000   298.0000 </r>
       <r>    -2.7650     0.0000   298.0000 </r>
       <r>    -2.6714     0.0000   298.0000 </r>
       <r>    -2.5777     0.0000   298.0000 </r>
       <r>    -2.4841     0.0000   298.0000 </r>
       <r>    -2.3904     0.0000   298.0000 </r>
       <r>    -2.2968     0.0000   298.0000 </r>
       <r>    -2.2032     2.0340   298.1905 </r>
       <r>    -2.1095    15.6655   300.2217 </r>
       <r>    -2.0159     7.5530   301.1085 </r>
       <r>    -1.9222    13.5431   302.4876 </r>
       <r>    -1.8286     9.0670   303.6165 </r>
       <r>    -1.7350     3.7303   303.9996 </r>
       <r>    -1.6413     0.0000   304.0000 </r>
       <r>    -1.5477     0.0000   304.0000 </r>
       <r>    -1.4540     0.8122   304.0761 </r>
       <r>    -1.3604    36.3274   308.9931 </r>
       <r>    -1.2668     6.7854   310.1695 </r>
       <r>    -1.1731    21.2115   314.0123 </r>
       <r>    -1.0795    21.9075   316.1414 </r>
       <r>    -0.9858     1.2529   316.2840 </r>
       <r>    -0.8922     1.2501   316.4171 </r>
       <r>    -0.7986     5.4684   316.9454 </r>
       <r>    -0.7049    27.4801   319.7075 </r>
       <r>    -0.6113    47.1091   326.1020 </r>
       <r>    -0.5176     9.5498   327.2115 </r>
       <r>    -0.4240     2.8601   327.6026 </r>
       <r>    -0.3304     1.0177   327.7286 </r>
       <r>    -0.2367     5.0797   328.2093 </r>
       <r>    -0.1431    47.1668   333.0014 </r>
       <r>    -0.0495     8.7891   334.1234 </r>
       <r>     0.0442    26.9540   336.6743 </r>
       <r>     0.1378    23.2276   339.0093 </r>
       <r>     0.2315    49.6776   344.8059 </r>
       <r>     0.3251     0.0000   346.0000 </r>
       <r>     0.4187    36.4928   349.4172 </r>
       <r>     0.5124    35.9314   353.2652 </r>
       <r>     0.6060    53.1245   358.3781 </r>
       <r>     0.6997    63.6980   365.1071 </r>
       <r>     0.7933    54.3393   371.3960 </r>
       <r>     0.8869    50.3113   376.6994 </r>
       <r>     0.9806    45.7826   381.6087 </r>
       <r>     1.0742    59.8648   388.2769 </r>
       <r>     1.1679    54.6486   394.4246 </r>
       <r>     1.2615    64.6946   401.5802 </r>
       <r>     1.3551    59.4861   408.0896 </r>
       <r>     1.4488    68.4750   415.5168 </r>
       <r>     1.5424     1.5906   416.0000 </r>
       <r>     1.6361     0.0000   416.0000 </r>
       <r>     1.7297     0.0000   416.0000 </r>
       <r>     1.8233     0.0000   416.0000 </r>
       <r>     1.9170     0.0000   416.0000 </r>
       <r>     2.0106     0.0000   416.0000 </r>
       <r>     2.1043     0.0000   416.0000 </r>
       <r>     2.1979     0.0000   416.0000 </r>
       <r>     2.2915     0.0000   416.0000 </r>
       <r>     2.3852     0.0000   416.0000 </r>
       <r>     2.4788     0.0000   416.0000 </r>
       <r>     2.5725     0.0000   416.0000 </r>
       <r>     2.6661     0.0000   416.0000 </r>
       <r>     2.7597     0.0000   416.0000 </r>
      </set>
     </set>
    </array>
   </total>
  </dos>
 </calculation>
 <structure name="finalpos" >
  <crystal>
   <varray name="basis" >
    <v>      24.40465138      -0.09731266       0.00000000 </v>
    <v>     -12.29019735      21.41594140       0.00000000 </v>
    <v>       0.00000000       0.00000000      20.00000000 </v>
   </varray>
   <i name="volume">  10429.05183957 </i>
   <varray name="rec_basis" >
    <v>       0.04106978       0.02356916       0.00000000 </v>
    <v>       0.00018662       0.04680129       0.00000000 </v>
    <v>       0.00000000       0.00000000       0.05000000 </v>
   </varray>
  </crystal>
  <varray name="positions" >
   <v>       0.12968139       0.59280744       0.39592321 </v>
   <v>       0.24613026       0.64896441       0.39516182 </v>
   <v>       0.24549636       0.52649582       0.54887395 </v>
   <v>       0.12776654       0.46960467       0.54939940 </v>
   <v>       0.28827659       0.69908719       0.53662205 </v>
   <v>       0.34765027       0.81518183       0.53661954 </v>
   <v>       0.28546283       0.51719246       0.40799628 </v>
   <v>       0.34134737       0.45755390       0.40799671 </v>
   <v>       0.48383837       0.59406395       0.53857332 </v>
   <v>       0.42799229       0.65482601       0.53825257 </v>
   <v>       0.42958972       0.69913630       0.40725781 </v>
   <v>       0.48786175       0.81405975       0.40701056 </v>
   <v>       0.83975887       0.31791609       0.56465584 </v>
   <v>       0.72340096       0.26229962       0.56401189 </v>
   <v>       0.72639432       0.38601389       0.41040669 </v>
   <v>       0.84406663       0.44242952       0.41137586 </v>
   <v>       0.68197586       0.21307269       0.42230729 </v>
   <v>       0.62207995       0.09699875       0.42211154 </v>
   <v>       0.68575871       0.39521045       0.55096648 </v>
   <v>       0.63094330       0.45584341       0.55069905 </v>
   <v>       0.48834040       0.32053084       0.41925721 </v>
   <v>       0.54316717       0.25882083       0.41981722 </v>
   <v>       0.54046704       0.21370013       0.55081476 </v>
   <v>       0.48168556       0.09874426       0.55095147 </v>
   <v>       0.04075154       0.59842307       0.40330526 </v>
   <v>       0.99577066       0.59635968       0.47373835 </v>
   <v>       0.07702063       0.61673465       0.48323883 </v>
   <v>       0.43807998       0.50129407       0.33751409 </v>
   <v>       0.46948764       0.45249841       0.31220144 </v>
   <v>       0.39025860       0.41864401       0.34036532 </v>
   <v>       0.44601738       0.86649313       0.33629484 </v>
   <v>       0.49590144       0.94684737       0.31269937 </v>
   <v>       0.52949463       0.90241581       0.34265773 </v>
   <v>       0.92986176       0.31404761       0.56035555 </v>
   <v>       0.89420502       0.29477802       0.48012108 </v>
   <v>       0.97546130       0.31557007       0.49074466 </v>
   <v>       0.50397908       0.46298220       0.64578325 </v>
   <v>       0.53461276       0.41348319       0.62067184 </v>
   <v>       0.58305281       0.49603425       0.61728981 </v>
   <v>       0.47395500       0.96566589       0.64545520 </v>
   <v>       0.52364730       0.04603472       0.62177878 </v>
   <v>       0.44011924       0.00998023       0.61586456 </v>
   <v>       0.32084096       0.62474595       0.47197830 </v>
   <v>       0.64977863       0.28775912       0.48656321 </v>
   <v>       0.94687785       0.48102405       0.47173923 </v>
   <v>       0.49443394       0.42751840       0.42478317 </v>
   <v>       0.51585195       0.99488273       0.42577729 </v>
   <v>       0.02402301       0.43072589       0.49039368 </v>
   <v>       0.47847624       0.48723256       0.53320425 </v>
   <v>       0.45347787       0.91765352       0.53232174 </v>
   <v>       0.25373732       0.59210318       0.47250692 </v>
   <v>       0.35327955       0.59071257       0.47226502 </v>
   <v>       0.35444730       0.69088522       0.47140596 </v>
   <v>       0.33181408       0.72449890       0.50772060 </v>
   <v>       0.36475220       0.78946922       0.50722169 </v>
   <v>       0.42105562       0.82358729       0.47032027 </v>
   <v>       0.44355343       0.78955771       0.43471971 </v>
   <v>       0.41102341       0.72443479       0.43504470 </v>
   <v>       0.22014311       0.61022902       0.42980224 </v>
   <v>       0.15428131       0.57878122       0.43115410 </v>
   <v>       0.11973329       0.52800981       0.47462825 </v>
   <v>       0.15402804       0.50940560       0.51612132 </v>
   <v>       0.21974913       0.54095910       0.51563057 </v>
   <v>       0.32948491       0.53466083       0.43594756 </v>
   <v>       0.36157902       0.50135567       0.43578488 </v>
   <v>       0.41826049       0.52254195       0.47160780 </v>
   <v>       0.44097446       0.57807515       0.50888726 </v>
   <v>       0.40944282       0.61181268       0.50919843 </v>
   <v>       0.71691083       0.31990582       0.48674399 </v>
   <v>       0.61786857       0.32227849       0.48622614 </v>
   <v>       0.61571460       0.22160665       0.48704828 </v>
   <v>       0.63824543       0.18779241       0.45094010 </v>
   <v>       0.60500606       0.12283330       0.45133256 </v>
   <v>       0.54848605       0.08892302       0.48793700 </v>
   <v>       0.52610701       0.12312353       0.52340475 </v>
   <v>       0.55893661       0.18825920       0.52314900 </v>
   <v>       0.74987324       0.30124546       0.52973631 </v>
   <v>       0.81576398       0.33244432       0.52919714 </v>
   <v>       0.85103695       0.38354215       0.48630875 </v>
   <v>       0.81732365       0.40248957       0.44433579 </v>
   <v>       0.75160425       0.37118603       0.44399192 </v>
   <v>       0.64195365       0.37825367       0.52273675 </v>
   <v>       0.61043780       0.41212142       0.52274872 </v>
   <v>       0.55402603       0.39157291       0.48659137 </v>
   <v>       0.53099343       0.33605837       0.44918511 </v>
   <v>       0.56195201       0.30177610       0.44901512 </v>
   <v>       0.04973437       0.49220332       0.47713308 </v>
   <v>       0.00971276       0.51804464       0.46815344 </v>
   <v>       0.03253317       0.58638003       0.45678798 </v>
   <v>       0.45315274       0.48788461       0.47361341 </v>
   <v>       0.46184244       0.45747560       0.41777488 </v>
   <v>       0.43867353       0.45798483       0.34814056 </v>
   <v>       0.45501472       0.89280564       0.47289480 </v>
   <v>       0.48694685       0.93277682       0.41801695 </v>
   <v>       0.48925957       0.91046635       0.34858169 </v>
   <v>       0.93845857       0.32555669       0.50676765 </v>
   <v>       0.96118244       0.39373756       0.49434151 </v>
   <v>       0.92111551       0.41945764       0.48475131 </v>
   <v>       0.53443804       0.45696681       0.60981602 </v>
   <v>       0.51109522       0.45730148       0.54021557 </v>
   <v>       0.51960370       0.42670800       0.48443540 </v>
   <v>       0.48038217       0.00202634       0.60964906 </v>
   <v>       0.48242920       0.97973795       0.54012146 </v>
   <v>       0.51432164       0.01970753       0.48522875 </v>
  </varray>
 </structure>
</modeling>
